 Entering Gaussian System, Link 0=/Local/ce_dana/g09/g09
 Initial command:
 /Local/ce_dana/g09/l1.exe "/storage/ce_dana/alongd/scratch/g09/Gau-85583.inp" -scrdir="/storage/ce_dana/alongd/scratch/g09/"
 Entering Link 1 = /Local/ce_dana/g09/l1.exe PID=     85584.
  
 Copyright (c) 1988,1990,1992,1993,1995,1998,2003,2009,2013,
            Gaussian, Inc.  All Rights Reserved.
  
 This is part of the Gaussian(R) 09 program.  It is based on
 the Gaussian(R) 03 system (copyright 2003, Gaussian, Inc.),
 the Gaussian(R) 98 system (copyright 1998, Gaussian, Inc.),
 the Gaussian(R) 94 system (copyright 1995, Gaussian, Inc.),
 the Gaussian 92(TM) system (copyright 1992, Gaussian, Inc.),
 the Gaussian 90(TM) system (copyright 1990, Gaussian, Inc.),
 the Gaussian 88(TM) system (copyright 1988, Gaussian, Inc.),
 the Gaussian 86(TM) system (copyright 1986, Carnegie Mellon
 University), and the Gaussian 82(TM) system (copyright 1983,
 Carnegie Mellon University). Gaussian is a federally registered
 trademark of Gaussian, Inc.
  
 This software contains proprietary and confidential information,
 including trade secrets, belonging to Gaussian, Inc.
  
 This software is provided under written license and may be
 used, copied, transmitted, or stored only in accord with that
 written license.
  
 The following legend is applicable only to US Government
 contracts under FAR:
  
                    RESTRICTED RIGHTS LEGEND
  
 Use, reproduction and disclosure by the US Government is
 subject to restrictions as set forth in subparagraphs (a)
 and (c) of the Commercial Computer Software - Restricted
 Rights clause in FAR 52.227-19.
  
 Gaussian, Inc.
 340 Quinnipiac St., Bldg. 40, Wallingford CT 06492
  
  
 ---------------------------------------------------------------
 Warning -- This program may not be used in any manner that
 competes with the business of Gaussian, Inc. or will provide
 assistance to any competitor of Gaussian, Inc.  The licensee
 of this program is prohibited from giving any competitor of
 Gaussian, Inc. access to this program.  By using this program,
 the user acknowledges that Gaussian, Inc. is engaged in the
 business of creating and licensing software in the field of
 computational chemistry and represents and warrants to the
 licensee that it is not a competitor of Gaussian, Inc. and that
 it will not use this program in any manner prohibited above.
 ---------------------------------------------------------------
  

 Cite this work as:
 Gaussian 09, Revision D.01,
 M. J. Frisch, G. W. Trucks, H. B. Schlegel, G. E. Scuseria, 
 M. A. Robb, J. R. Cheeseman, G. Scalmani, V. Barone, B. Mennucci, 
 G. A. Petersson, H. Nakatsuji, M. Caricato, X. Li, H. P. Hratchian, 
 A. F. Izmaylov, J. Bloino, G. Zheng, J. L. Sonnenberg, M. Hada, 
 M. Ehara, K. Toyota, R. Fukuda, J. Hasegawa, M. Ishida, T. Nakajima, 
 Y. Honda, O. Kitao, H. Nakai, T. Vreven, J. A. Montgomery, Jr., 
 J. E. Peralta, F. Ogliaro, M. Bearpark, J. J. Heyd, E. Brothers, 
 K. N. Kudin, V. N. Staroverov, T. Keith, R. Kobayashi, J. Normand, 
 K. Raghavachari, A. Rendell, J. C. Burant, S. S. Iyengar, J. Tomasi, 
 M. Cossi, N. Rega, J. M. Millam, M. Klene, J. E. Knox, J. B. Cross, 
 V. Bakken, C. Adamo, J. Jaramillo, R. Gomperts, R. E. Stratmann, 
 O. Yazyev, A. J. Austin, R. Cammi, C. Pomelli, J. W. Ochterski, 
 R. L. Martin, K. Morokuma, V. G. Zakrzewski, G. A. Voth, 
 P. Salvador, J. J. Dannenberg, S. Dapprich, A. D. Daniels, 
 O. Farkas, J. B. Foresman, J. V. Ortiz, J. Cioslowski, 
 and D. J. Fox, Gaussian, Inc., Wallingford CT, 2013.
 
 ******************************************
 Gaussian 09:  ES64L-G09RevD.01 24-Apr-2013
                22-May-2022 
 ******************************************
 %chk=check.chk
 %mem=7168mb
 %NProcShared=10
 Will use up to   10 processors via shared memory.
 ---------------------------------------------------------
 #P opt=(calcfc) guess=mix uhf/3-21g IOp(2/9=2000) scf=xqc
 ---------------------------------------------------------
 1/10=4,18=20,19=15,38=1/1,3;
 2/9=2000,12=2,17=6,18=5,40=1/2;
 3/5=5,11=2,16=1,25=1,30=1,71=2,116=2,140=1/1,2,3;
 4/13=-1/1;
 5/5=2,8=3,13=1,38=5/2,8;
 8/6=4,10=90,11=11/1;
 11/6=1,8=1,9=11,15=111,16=1/1,2,10;
 10/6=1,13=1/2;
 6/7=2,8=2,9=2,10=2,28=1/1;
 7/10=1,18=20,25=1/1,2,3,16;
 1/10=4,18=20,19=15/3(2);
 2/9=2000/2;
 99//99;
 2/9=2000/2;
 3/5=5,11=2,16=1,25=1,30=1,71=1,116=2/1,2,3;
 4/5=5,16=3,69=1/1;
 5/5=2,8=3,13=1,38=5/2,8;
 7//1,2,3,16;
 1/18=20,19=15/3(-5);
 2/9=2000/2;
 6/7=2,8=2,9=2,10=2,19=2,28=1/1;
 99/9=1/99;
 Leave Link    1 at Sun May 22 09:08:30 2022, MaxMem=   939524096 cpu:         0.0
 (Enter /Local/ce_dana/g09/l101.exe)
 -----
 iC3H7
 -----
 Symbolic Z-matrix:
 Charge =  0 Multiplicity = 2
 C                     1.29196   0.15815   0.32048 
 C                    -0.03888  -0.17543   0.89495 
 C                    -1.26223   0.4704    0.34837 
 H                     1.40933   1.23955   0.20511 
 H                     2.08594  -0.19904   0.98301 
 H                     1.41699  -0.31973  -0.65526 
 H                    -0.13934  -1.0534    1.52399 
 H                    -1.51965   0.03926  -0.62319 
 H                    -2.10442   0.31322   1.02877 
 H                    -1.11812   1.54853   0.23272 
 
 NAtoms=     10 NQM=       10 NQMF=       0 NMMI=      0 NMMIF=      0
                NMic=       0 NMicF=      0.
                    Isotopes and Nuclear Properties:
 (Nuclear quadrupole moments (NQMom) in fm**2, nuclear magnetic moments (NMagM)
  in nuclear magnetons)

  Atom         1           2           3           4           5           6           7           8           9          10
 IAtWgt=          12          12          12           1           1           1           1           1           1           1
 AtmWgt=  12.0000000  12.0000000  12.0000000   1.0078250   1.0078250   1.0078250   1.0078250   1.0078250   1.0078250   1.0078250
 NucSpn=           0           0           0           1           1           1           1           1           1           1
 AtZEff=   0.0000000   0.0000000   0.0000000   0.0000000   0.0000000   0.0000000   0.0000000   0.0000000   0.0000000   0.0000000
 NQMom=    0.0000000   0.0000000   0.0000000   0.0000000   0.0000000   0.0000000   0.0000000   0.0000000   0.0000000   0.0000000
 NMagM=    0.0000000   0.0000000   0.0000000   2.7928460   2.7928460   2.7928460   2.7928460   2.7928460   2.7928460   2.7928460
 AtZNuc=   6.0000000   6.0000000   6.0000000   1.0000000   1.0000000   1.0000000   1.0000000   1.0000000   1.0000000   1.0000000
 Leave Link  101 at Sun May 22 09:08:30 2022, MaxMem=   939524096 cpu:         0.3
 (Enter /Local/ce_dana/g09/l103.exe)

 GradGradGradGradGradGradGradGradGradGradGradGradGradGradGradGradGradGrad
 Berny optimization.
 Initialization pass.
                           ----------------------------
                           !    Initial Parameters    !
                           ! (Angstroms and Degrees)  !
 --------------------------                            --------------------------
 ! Name  Definition              Value          Derivative Info.                !
 --------------------------------------------------------------------------------
 ! R1    R(1,2)                  1.4874         calculate D2E/DX2 analytically  !
 ! R2    R(1,4)                  1.0939         calculate D2E/DX2 analytically  !
 ! R3    R(1,5)                  1.094          calculate D2E/DX2 analytically  !
 ! R4    R(1,6)                  1.0936         calculate D2E/DX2 analytically  !
 ! R5    R(2,3)                  1.4874         calculate D2E/DX2 analytically  !
 ! R6    R(2,7)                  1.0847         calculate D2E/DX2 analytically  !
 ! R7    R(3,8)                  1.0936         calculate D2E/DX2 analytically  !
 ! R8    R(3,9)                  1.094          calculate D2E/DX2 analytically  !
 ! R9    R(3,10)                 1.0939         calculate D2E/DX2 analytically  !
 ! A1    A(2,1,4)              111.0052         calculate D2E/DX2 analytically  !
 ! A2    A(2,1,5)              110.0119         calculate D2E/DX2 analytically  !
 ! A3    A(2,1,6)              110.418          calculate D2E/DX2 analytically  !
 ! A4    A(4,1,5)              107.9848         calculate D2E/DX2 analytically  !
 ! A5    A(4,1,6)              109.004          calculate D2E/DX2 analytically  !
 ! A6    A(5,1,6)              108.3405         calculate D2E/DX2 analytically  !
 ! A7    A(1,2,3)              119.774          calculate D2E/DX2 analytically  !
 ! A8    A(1,2,7)              119.233          calculate D2E/DX2 analytically  !
 ! A9    A(3,2,7)              119.233          calculate D2E/DX2 analytically  !
 ! A10   A(2,3,8)              110.418          calculate D2E/DX2 analytically  !
 ! A11   A(2,3,9)              110.0119         calculate D2E/DX2 analytically  !
 ! A12   A(2,3,10)             111.0052         calculate D2E/DX2 analytically  !
 ! A13   A(8,3,9)              108.3405         calculate D2E/DX2 analytically  !
 ! A14   A(8,3,10)             109.004          calculate D2E/DX2 analytically  !
 ! A15   A(9,3,10)             107.9848         calculate D2E/DX2 analytically  !
 ! D1    D(4,1,2,3)             46.5023         calculate D2E/DX2 analytically  !
 ! D2    D(4,1,2,7)           -148.7186         calculate D2E/DX2 analytically  !
 ! D3    D(5,1,2,3)            165.964          calculate D2E/DX2 analytically  !
 ! D4    D(5,1,2,7)            -29.257          calculate D2E/DX2 analytically  !
 ! D5    D(6,1,2,3)            -74.5039         calculate D2E/DX2 analytically  !
 ! D6    D(6,1,2,7)             90.2751         calculate D2E/DX2 analytically  !
 ! D7    D(1,2,3,8)             74.5038         calculate D2E/DX2 analytically  !
 ! D8    D(1,2,3,9)           -165.9641         calculate D2E/DX2 analytically  !
 ! D9    D(1,2,3,10)           -46.5025         calculate D2E/DX2 analytically  !
 ! D10   D(7,2,3,8)            -90.2752         calculate D2E/DX2 analytically  !
 ! D11   D(7,2,3,9)             29.2569         calculate D2E/DX2 analytically  !
 ! D12   D(7,2,3,10)           148.7185         calculate D2E/DX2 analytically  !
 --------------------------------------------------------------------------------
 Trust Radius=3.00D-01 FncErr=1.00D-07 GrdErr=1.00D-07
 Number of steps in this run=     46 maximum allowed number of steps=    100.
 GradGradGradGradGradGradGradGradGradGradGradGradGradGradGradGradGradGrad

 Leave Link  103 at Sun May 22 09:08:30 2022, MaxMem=   939524096 cpu:         0.0
 (Enter /Local/ce_dana/g09/l202.exe)
                          Input orientation:                          
 ---------------------------------------------------------------------
 Center     Atomic      Atomic             Coordinates (Angstroms)
 Number     Number       Type             X           Y           Z
 ---------------------------------------------------------------------
      1          6           0        1.291964    0.158152    0.320475
      2          6           0       -0.038878   -0.175435    0.894945
      3          6           0       -1.262229    0.470396    0.348365
      4          1           0        1.409332    1.239554    0.205115
      5          1           0        2.085937   -0.199036    0.983013
      6          1           0        1.416994   -0.319735   -0.655258
      7          1           0       -0.139338   -1.053399    1.523989
      8          1           0       -1.519647    0.039265   -0.623192
      9          1           0       -2.104418    0.313223    1.028767
     10          1           0       -1.118123    1.548530    0.232715
 ---------------------------------------------------------------------
                    Distance matrix (angstroms):
                    1          2          3          4          5
     1  C    0.000000
     2  C    1.487426   0.000000
     3  C    2.573359   1.487426   0.000000
     4  H    1.093853   2.139012   2.783768   0.000000
     5  H    1.094045   2.126770   3.472915   1.769876   0.000000
     6  H    1.093646   2.131552   2.968131   1.780921   1.773692
     7  H    2.228212   1.084716   2.228212   3.065199   2.444267
     8  H    2.968130   2.131552   1.093646   3.271958   3.954355
     9  H    3.472915   2.126770   1.094044   3.725981   4.221798
    10  H    2.783769   2.139012   1.093853   2.546421   3.725981
                    6          7          8          9         10
     6  H    0.000000
     7  H    2.776608   0.000000
     8  H    2.958677   2.776608   0.000000
     9  H    3.954355   2.444267   1.773691   0.000000
    10  H    3.271961   3.065199   1.780921   1.769876   0.000000
 Stoichiometry    C3H7(2)
 Framework group  C1[X(C3H7)]
 Deg. of freedom    24
 Full point group                 C1      NOp   1
 Largest Abelian subgroup         C1      NOp   1
 Largest concise Abelian subgroup C1      NOp   1
                         Standard orientation:                         
 ---------------------------------------------------------------------
 Center     Atomic      Atomic             Coordinates (Angstroms)
 Number     Number       Type             X           Y           Z
 ---------------------------------------------------------------------
      1          6           0        1.286679   -0.206628    0.007399
      2          6           0        0.000000    0.537057   -0.054438
      3          6           0       -1.286680   -0.206628    0.007398
      4          1           0        1.273210   -1.069987   -0.664125
      5          1           0        2.110899    0.445251   -0.296985
      6          1           0        1.479339   -0.551610    1.027169
      7          1           0        0.000000    1.609884    0.105729
      8          1           0       -1.479338   -0.551611    1.027169
      9          1           0       -2.110899    0.445251   -0.296982
     10          1           0       -1.273211   -1.069985   -0.664127
 ---------------------------------------------------------------------
 Rotational constants (GHZ):     37.0345971      8.4754465      7.5651044
 Leave Link  202 at Sun May 22 09:08:30 2022, MaxMem=   939524096 cpu:         0.0
 (Enter /Local/ce_dana/g09/l301.exe)
 Standard basis: 3-21G (6D, 7F)
 Ernie: Thresh=  0.10000D-02 Tol=  0.10000D-05 Strict=F.
 There are    41 symmetry adapted cartesian basis functions of A   symmetry.
 There are    41 symmetry adapted basis functions of A   symmetry.
    41 basis functions,    66 primitive gaussians,    41 cartesian basis functions
    13 alpha electrons       12 beta electrons
       nuclear repulsion energy        75.7292811157 Hartrees.
 IExCor=    0 DFT=F Ex=HF Corr=None ExCW=0 ScaHFX=  1.000000
 ScaDFX=  1.000000  1.000000  1.000000  1.000000 ScalE2=  1.000000  1.000000
 IRadAn=      0 IRanWt=     -1 IRanGd=            0 ICorTp=0 IEmpDi=  4
 NAtoms=   10 NActive=   10 NUniq=   10 SFac= 1.00D+00 NAtFMM=   60 NAOKFM=F Big=F
 Integral buffers will be    131072 words long.
 Raffenetti 2 integral format.
 Two-electron integral symmetry is turned on.
 Leave Link  301 at Sun May 22 09:08:30 2022, MaxMem=   939524096 cpu:         0.1
 (Enter /Local/ce_dana/g09/l302.exe)
 NPDir=0 NMtPBC=     1 NCelOv=     1 NCel=       1 NClECP=     1 NCelD=      1
         NCelK=      1 NCelE2=     1 NClLst=     1 CellRange=     0.0.
 One-electron integrals computed using PRISM.
 NBasis=    41 RedAO= T EigKep=  1.58D-02  NBF=    41
 NBsUse=    41 1.00D-06 EigRej= -1.00D+00 NBFU=    41
 Leave Link  302 at Sun May 22 09:08:31 2022, MaxMem=   939524096 cpu:         0.8
 (Enter /Local/ce_dana/g09/l303.exe)
 DipDrv:  MaxL=1.
 Leave Link  303 at Sun May 22 09:08:31 2022, MaxMem=   939524096 cpu:         0.1
 (Enter /Local/ce_dana/g09/l401.exe)
 ExpMin= 1.83D-01 ExpMax= 1.72D+02 ExpMxC= 1.72D+02 IAcc=1 IRadAn=         1 AccDes= 0.00D+00
 Harris functional with IExCor=  205 and IRadAn=       1 diagonalized for initial guess.
 HarFok:  IExCor=  205 AccDes= 0.00D+00 IRadAn=         1 IDoV= 1 UseB2=F ITyADJ=14
 ICtDFT=  3500011 ScaDFX=  1.000000  1.000000  1.000000  1.000000
 FoFCou: FMM=F IPFlag=           0 FMFlag=      100000 FMFlg1=           0
         NFxFlg=           0 DoJE=T BraDBF=F KetDBF=T FulRan=T
         wScrn=  0.000000 ICntrl=     500 IOpCl=  0 I1Cent=   200000004 NGrid=           0
         NMat0=    1 NMatS0=      1 NMatT0=    0 NMatD0=    1 NMtDS0=    0 NMtDT0=    0
 Petite list used in FoFCou.
 Harris En= -117.264884216457    
 JPrj=0 DoOrth=F DoCkMO=T.
 Mixing orbitals, IMix= 1 IMixAn=  0 NRI=1 NE=   13 Coef=  7.07106781D-01  7.07106781D-01
 Mixing orbitals, IMix= 1 IMixAn=  0 NRI=1 NE=   12 Coef= -7.07106781D-01  7.07106781D-01
 Initial guess <Sx>= 0.0000 <Sy>= 0.0000 <Sz>= 0.5000 <S**2>= 1.0000 S= 0.6180
 Leave Link  401 at Sun May 22 09:08:31 2022, MaxMem=   939524096 cpu:         0.9
 (Enter /Local/ce_dana/g09/l502.exe)
 UHF open shell SCF:
 Using DIIS extrapolation, IDIIS=  1040.
 Integral symmetry usage will be decided dynamically.
 Keep R1 and R2 ints in memory in canonical form, NReq=1568797.
 IVT=       11725 IEndB=       11725 NGot=   939524096 MDV=   938770190
 LenX=   938770190 LenY=   938768068
 Requested convergence on RMS density matrix=1.00D-08 within  64 cycles.
 Requested convergence on MAX density matrix=1.00D-06.
 Requested convergence on             energy=1.00D-06.
 No special actions if energy rises.
 FoFCou: FMM=F IPFlag=           0 FMFlag=           0 FMFlg1=           0
         NFxFlg=           0 DoJE=F BraDBF=F KetDBF=F FulRan=T
         wScrn=  0.000000 ICntrl=     600 IOpCl=  0 I1Cent=           0 NGrid=           0
         NMat0=    1 NMatS0=    861 NMatT0=    0 NMatD0=    1 NMtDS0=    0 NMtDT0=    0
 Symmetry not used in FoFCou.

 Cycle   1  Pass 1  IDiag  1:
 E= -116.523941183015    
 DIIS: error= 6.41D-02 at cycle   1 NSaved=   1.
 NSaved= 1 IEnMin= 1 EnMin= -116.523941183015     IErMin= 1 ErrMin= 6.41D-02
 ErrMax= 6.41D-02  0.00D+00 EMaxC= 1.00D-01 BMatC= 7.56D-01 BMatP= 7.56D-01
 IDIUse=3 WtCom= 3.59D-01 WtEn= 6.41D-01
 Coeff-Com:  0.100D+01
 Coeff-En:   0.100D+01
 Coeff:      0.100D+01
 Gap=     0.243 Goal=   None    Shift=    0.000
 Gap=     0.335 Goal=   None    Shift=    0.000
 GapD=    0.243 DampG=1.000 DampE=0.500 DampFc=0.5000 IDamp=-1.
 Damping current iteration by 5.00D-01
 RMSDP=3.86D-02 MaxDP=3.91D-01              OVMax= 3.73D-01

 Cycle   2  Pass 1  IDiag  1:
 E= -116.679913277316     Delta-E=       -0.155972094300 Rises=F Damp=T
 DIIS: error= 5.89D-02 at cycle   2 NSaved=   2.
 NSaved= 2 IEnMin= 2 EnMin= -116.679913277316     IErMin= 2 ErrMin= 5.89D-02
 ErrMax= 5.89D-02  0.00D+00 EMaxC= 1.00D-01 BMatC= 1.76D-01 BMatP= 7.56D-01
 IDIUse=3 WtCom= 4.11D-01 WtEn= 5.89D-01
 Coeff-Com: -0.567D+00 0.157D+01
 Coeff-En:   0.000D+00 0.100D+01
 Coeff:     -0.233D+00 0.123D+01
 Gap=     0.413 Goal=   None    Shift=    0.000
 Gap=     0.470 Goal=   None    Shift=    0.000
 RMSDP=3.24D-02 MaxDP=2.82D-01 DE=-1.56D-01 OVMax= 1.65D-01

 Cycle   3  Pass 1  IDiag  1:
 E= -116.926804688062     Delta-E=       -0.246891410746 Rises=F Damp=F
 DIIS: error= 4.12D-02 at cycle   3 NSaved=   3.
 NSaved= 3 IEnMin= 3 EnMin= -116.926804688062     IErMin= 3 ErrMin= 4.12D-02
 ErrMax= 4.12D-02  0.00D+00 EMaxC= 1.00D-01 BMatC= 3.51D-02 BMatP= 1.76D-01
 IDIUse=3 WtCom= 5.88D-01 WtEn= 4.12D-01
 Coeff-Com:  0.384D+00-0.895D+00 0.151D+01
 Coeff-En:   0.000D+00 0.000D+00 0.100D+01
 Coeff:      0.226D+00-0.526D+00 0.130D+01
 Gap=     0.550 Goal=   None    Shift=    0.000
 Gap=     0.589 Goal=   None    Shift=    0.000
 RMSDP=1.11D-02 MaxDP=1.20D-01 DE=-2.47D-01 OVMax= 1.60D-01

 Cycle   4  Pass 1  IDiag  1:
 E= -116.970848004488     Delta-E=       -0.044043316427 Rises=F Damp=F
 DIIS: error= 2.13D-02 at cycle   4 NSaved=   4.
 NSaved= 4 IEnMin= 4 EnMin= -116.970848004488     IErMin= 4 ErrMin= 2.13D-02
 ErrMax= 2.13D-02  0.00D+00 EMaxC= 1.00D-01 BMatC= 9.06D-03 BMatP= 3.51D-02
 IDIUse=3 WtCom= 7.87D-01 WtEn= 2.13D-01
 Coeff-Com: -0.240D+00 0.560D+00-0.125D+01 0.193D+01
 Coeff-En:   0.000D+00 0.000D+00 0.000D+00 0.100D+01
 Coeff:     -0.189D+00 0.440D+00-0.982D+00 0.173D+01
 Gap=     0.591 Goal=   None    Shift=    0.000
 Gap=     0.631 Goal=   None    Shift=    0.000
 RMSDP=5.37D-03 MaxDP=7.48D-02 DE=-4.40D-02 OVMax= 1.07D-01

 Cycle   5  Pass 1  IDiag  1:
 E= -116.983254935701     Delta-E=       -0.012406931213 Rises=F Damp=F
 DIIS: error= 6.12D-03 at cycle   5 NSaved=   5.
 NSaved= 5 IEnMin= 5 EnMin= -116.983254935701     IErMin= 5 ErrMin= 6.12D-03
 ErrMax= 6.12D-03  0.00D+00 EMaxC= 1.00D-01 BMatC= 1.17D-03 BMatP= 9.06D-03
 IDIUse=3 WtCom= 9.39D-01 WtEn= 6.12D-02
 Coeff-Com:  0.362D-01-0.783D-01 0.277D+00-0.805D+00 0.157D+01
 Coeff-En:   0.000D+00 0.000D+00 0.000D+00 0.000D+00 0.100D+01
 Coeff:      0.340D-01-0.735D-01 0.260D+00-0.755D+00 0.153D+01
 Gap=     0.599 Goal=   None    Shift=    0.000
 Gap=     0.650 Goal=   None    Shift=    0.000
 RMSDP=1.48D-03 MaxDP=2.49D-02 DE=-1.24D-02 OVMax= 3.56D-02

 Cycle   6  Pass 1  IDiag  1:
 E= -116.984661017926     Delta-E=       -0.001406082225 Rises=F Damp=F
 DIIS: error= 1.44D-03 at cycle   6 NSaved=   6.
 NSaved= 6 IEnMin= 6 EnMin= -116.984661017926     IErMin= 6 ErrMin= 1.44D-03
 ErrMax= 1.44D-03  0.00D+00 EMaxC= 1.00D-01 BMatC= 1.36D-04 BMatP= 1.17D-03
 IDIUse=3 WtCom= 9.86D-01 WtEn= 1.44D-02
 Coeff-Com:  0.383D-01-0.875D-01 0.232D+00-0.442D+00 0.212D+00 0.105D+01
 Coeff-En:   0.000D+00 0.000D+00 0.000D+00 0.000D+00 0.000D+00 0.100D+01
 Coeff:      0.377D-01-0.863D-01 0.229D+00-0.436D+00 0.209D+00 0.105D+01
 Gap=     0.603 Goal=   None    Shift=    0.000
 Gap=     0.651 Goal=   None    Shift=    0.000
 RMSDP=4.36D-04 MaxDP=6.19D-03 DE=-1.41D-03 OVMax= 9.12D-03

 Cycle   7  Pass 1  IDiag  1:
 E= -116.984783363456     Delta-E=       -0.000122345530 Rises=F Damp=F
 DIIS: error= 3.92D-04 at cycle   7 NSaved=   7.
 NSaved= 7 IEnMin= 7 EnMin= -116.984783363456     IErMin= 7 ErrMin= 3.92D-04
 ErrMax= 3.92D-04  0.00D+00 EMaxC= 1.00D-01 BMatC= 1.05D-05 BMatP= 1.36D-04
 IDIUse=3 WtCom= 9.96D-01 WtEn= 3.92D-03
 Coeff-Com: -0.958D-02 0.221D-01-0.629D-01 0.134D+00-0.128D+00-0.311D+00
 Coeff-Com:  0.136D+01
 Coeff-En:   0.000D+00 0.000D+00 0.000D+00 0.000D+00 0.000D+00 0.000D+00
 Coeff-En:   0.100D+01
 Coeff:     -0.954D-02 0.220D-01-0.627D-01 0.133D+00-0.127D+00-0.310D+00
 Coeff:      0.135D+01
 Gap=     0.603 Goal=   None    Shift=    0.000
 Gap=     0.652 Goal=   None    Shift=    0.000
 RMSDP=1.26D-04 MaxDP=1.54D-03 DE=-1.22D-04 OVMax= 1.93D-03

 Cycle   8  Pass 1  IDiag  1:
 E= -116.984793398238     Delta-E=       -0.000010034782 Rises=F Damp=F
 DIIS: error= 1.60D-04 at cycle   8 NSaved=   8.
 NSaved= 8 IEnMin= 8 EnMin= -116.984793398238     IErMin= 8 ErrMin= 1.60D-04
 ErrMax= 1.60D-04  0.00D+00 EMaxC= 1.00D-01 BMatC= 2.07D-06 BMatP= 1.05D-05
 IDIUse=3 WtCom= 9.98D-01 WtEn= 1.60D-03
 Coeff-Com:  0.354D-02-0.778D-02 0.222D-01-0.470D-01 0.549D-01 0.132D+00
 Coeff-Com: -0.967D+00 0.181D+01
 Coeff-En:   0.000D+00 0.000D+00 0.000D+00 0.000D+00 0.000D+00 0.000D+00
 Coeff-En:   0.000D+00 0.100D+01
 Coeff:      0.354D-02-0.776D-02 0.222D-01-0.470D-01 0.548D-01 0.132D+00
 Coeff:     -0.965D+00 0.181D+01
 Gap=     0.603 Goal=   None    Shift=    0.000
 Gap=     0.652 Goal=   None    Shift=    0.000
 RMSDP=6.84D-05 MaxDP=7.70D-04 DE=-1.00D-05 OVMax= 8.13D-04

 Cycle   9  Pass 1  IDiag  1:
 E= -116.984795764191     Delta-E=       -0.000002365952 Rises=F Damp=F
 DIIS: error= 3.99D-05 at cycle   9 NSaved=   9.
 NSaved= 9 IEnMin= 9 EnMin= -116.984795764191     IErMin= 9 ErrMin= 3.99D-05
 ErrMax= 3.99D-05  0.00D+00 EMaxC= 1.00D-01 BMatC= 2.54D-07 BMatP= 2.07D-06
 IDIUse=1 WtCom= 1.00D+00 WtEn= 0.00D+00
 Coeff-Com: -0.110D-02 0.243D-02-0.425D-02 0.482D-02-0.704D-02-0.351D-01
 Coeff-Com:  0.362D+00-0.107D+01 0.175D+01
 Coeff:     -0.110D-02 0.243D-02-0.425D-02 0.482D-02-0.704D-02-0.351D-01
 Coeff:      0.362D+00-0.107D+01 0.175D+01
 Gap=     0.603 Goal=   None    Shift=    0.000
 Gap=     0.652 Goal=   None    Shift=    0.000
 RMSDP=2.67D-05 MaxDP=2.49D-04 DE=-2.37D-06 OVMax= 2.87D-04

 Cycle  10  Pass 1  IDiag  1:
 E= -116.984796050620     Delta-E=       -0.000000286429 Rises=F Damp=F
 DIIS: error= 1.09D-05 at cycle  10 NSaved=  10.
 NSaved=10 IEnMin=10 EnMin= -116.984796050620     IErMin=10 ErrMin= 1.09D-05
 ErrMax= 1.09D-05  0.00D+00 EMaxC= 1.00D-01 BMatC= 1.63D-08 BMatP= 2.54D-07
 IDIUse=1 WtCom= 1.00D+00 WtEn= 0.00D+00
 Coeff-Com: -0.788D-04 0.203D-03-0.101D-02 0.327D-02-0.279D-02 0.541D-02
 Coeff-Com: -0.711D-01 0.297D+00-0.699D+00 0.147D+01
 Coeff:     -0.788D-04 0.203D-03-0.101D-02 0.327D-02-0.279D-02 0.541D-02
 Coeff:     -0.711D-01 0.297D+00-0.699D+00 0.147D+01
 Gap=     0.603 Goal=   None    Shift=    0.000
 Gap=     0.652 Goal=   None    Shift=    0.000
 RMSDP=5.21D-06 MaxDP=5.15D-05 DE=-2.86D-07 OVMax= 7.30D-05

 Cycle  11  Pass 1  IDiag  1:
 E= -116.984796067113     Delta-E=       -0.000000016494 Rises=F Damp=F
 DIIS: error= 4.53D-06 at cycle  11 NSaved=  11.
 NSaved=11 IEnMin=11 EnMin= -116.984796067113     IErMin=11 ErrMin= 4.53D-06
 ErrMax= 4.53D-06  0.00D+00 EMaxC= 1.00D-01 BMatC= 2.95D-09 BMatP= 1.63D-08
 IDIUse=1 WtCom= 1.00D+00 WtEn= 0.00D+00
 Coeff-Com:  0.319D-04-0.854D-04 0.344D-03-0.142D-02 0.149D-02-0.440D-02
 Coeff-Com:  0.353D-01-0.149D+00 0.380D+00-0.117D+01 0.190D+01
 Coeff:      0.319D-04-0.854D-04 0.344D-03-0.142D-02 0.149D-02-0.440D-02
 Coeff:      0.353D-01-0.149D+00 0.380D+00-0.117D+01 0.190D+01
 Gap=     0.603 Goal=   None    Shift=    0.000
 Gap=     0.652 Goal=   None    Shift=    0.000
 RMSDP=2.78D-06 MaxDP=2.87D-05 DE=-1.65D-08 OVMax= 2.50D-05

 Cycle  12  Pass 1  IDiag  1:
 E= -116.984796070630     Delta-E=       -0.000000003517 Rises=F Damp=F
 DIIS: error= 1.39D-06 at cycle  12 NSaved=  12.
 NSaved=12 IEnMin=12 EnMin= -116.984796070630     IErMin=12 ErrMin= 1.39D-06
 ErrMax= 1.39D-06  0.00D+00 EMaxC= 1.00D-01 BMatC= 2.80D-10 BMatP= 2.95D-09
 IDIUse=1 WtCom= 1.00D+00 WtEn= 0.00D+00
 Coeff-Com: -0.321D-04 0.652D-04-0.163D-03 0.484D-03-0.557D-03 0.357D-03
 Coeff-Com:  0.115D-02 0.685D-02-0.436D-01 0.295D+00-0.850D+00 0.159D+01
 Coeff:     -0.321D-04 0.652D-04-0.163D-03 0.484D-03-0.557D-03 0.357D-03
 Coeff:      0.115D-02 0.685D-02-0.436D-01 0.295D+00-0.850D+00 0.159D+01
 Gap=     0.603 Goal=   None    Shift=    0.000
 Gap=     0.652 Goal=   None    Shift=    0.000
 RMSDP=8.54D-07 MaxDP=7.77D-06 DE=-3.52D-09 OVMax= 7.42D-06

 Cycle  13  Pass 1  IDiag  1:
 E= -116.984796070917     Delta-E=       -0.000000000287 Rises=F Damp=F
 DIIS: error= 3.15D-07 at cycle  13 NSaved=  13.
 NSaved=13 IEnMin=13 EnMin= -116.984796070917     IErMin=13 ErrMin= 3.15D-07
 ErrMax= 3.15D-07  0.00D+00 EMaxC= 1.00D-01 BMatC= 9.33D-12 BMatP= 2.80D-10
 IDIUse=1 WtCom= 1.00D+00 WtEn= 0.00D+00
 Coeff-Com:  0.124D-04-0.252D-04 0.412D-04-0.741D-04 0.678D-04 0.123D-03
 Coeff-Com: -0.203D-02 0.553D-02-0.716D-02-0.238D-01 0.133D+00-0.414D+00
 Coeff-Com:  0.131D+01
 Coeff:      0.124D-04-0.252D-04 0.412D-04-0.741D-04 0.678D-04 0.123D-03
 Coeff:     -0.203D-02 0.553D-02-0.716D-02-0.238D-01 0.133D+00-0.414D+00
 Coeff:      0.131D+01
 Gap=     0.603 Goal=   None    Shift=    0.000
 Gap=     0.652 Goal=   None    Shift=    0.000
 RMSDP=1.19D-07 MaxDP=1.32D-06 DE=-2.87D-10 OVMax= 1.61D-06

 Cycle  14  Pass 1  IDiag  1:
 E= -116.984796070924     Delta-E=       -0.000000000007 Rises=F Damp=F
 DIIS: error= 6.95D-08 at cycle  14 NSaved=  14.
 NSaved=14 IEnMin=14 EnMin= -116.984796070924     IErMin=14 ErrMin= 6.95D-08
 ErrMax= 6.95D-08  0.00D+00 EMaxC= 1.00D-01 BMatC= 8.58D-13 BMatP= 9.33D-12
 IDIUse=1 WtCom= 1.00D+00 WtEn= 0.00D+00
 Coeff-Com: -0.177D-05 0.329D-05-0.204D-05-0.615D-05 0.184D-04-0.700D-04
 Coeff-Com:  0.533D-03-0.195D-02 0.428D-02-0.749D-02 0.408D-02 0.477D-01
 Coeff-Com: -0.452D+00 0.140D+01
 Coeff:     -0.177D-05 0.329D-05-0.204D-05-0.615D-05 0.184D-04-0.700D-04
 Coeff:      0.533D-03-0.195D-02 0.428D-02-0.749D-02 0.408D-02 0.477D-01
 Coeff:     -0.452D+00 0.140D+01
 Gap=     0.603 Goal=   None    Shift=    0.000
 Gap=     0.652 Goal=   None    Shift=    0.000
 RMSDP=3.22D-08 MaxDP=3.05D-07 DE=-7.45D-12 OVMax= 4.15D-07

 Cycle  15  Pass 1  IDiag  1:
 E= -116.984796070925     Delta-E=       -0.000000000001 Rises=F Damp=F
 DIIS: error= 2.33D-08 at cycle  15 NSaved=  15.
 NSaved=15 IEnMin=15 EnMin= -116.984796070925     IErMin=15 ErrMin= 2.33D-08
 ErrMax= 2.33D-08  0.00D+00 EMaxC= 1.00D-01 BMatC= 1.17D-13 BMatP= 8.58D-13
 IDIUse=1 WtCom= 1.00D+00 WtEn= 0.00D+00
 Coeff-Com:  0.428D-06-0.801D-06-0.137D-06 0.534D-05-0.137D-04 0.365D-04
 Coeff-Com: -0.129D-03 0.517D-03-0.129D-02 0.379D-02-0.953D-02 0.402D-02
 Coeff-Com:  0.152D+00-0.880D+00 0.173D+01
 Coeff:      0.428D-06-0.801D-06-0.137D-06 0.534D-05-0.137D-04 0.365D-04
 Coeff:     -0.129D-03 0.517D-03-0.129D-02 0.379D-02-0.953D-02 0.402D-02
 Coeff:      0.152D+00-0.880D+00 0.173D+01
 Gap=     0.603 Goal=   None    Shift=    0.000
 Gap=     0.652 Goal=   None    Shift=    0.000
 RMSDP=1.73D-08 MaxDP=1.79D-07 DE=-7.39D-13 OVMax= 1.43D-07

 Cycle  16  Pass 1  IDiag  1:
 E= -116.984796070925     Delta-E=       -0.000000000000 Rises=F Damp=F
 DIIS: error= 5.51D-09 at cycle  16 NSaved=  16.
 NSaved=16 IEnMin=16 EnMin= -116.984796070925     IErMin=16 ErrMin= 5.51D-09
 ErrMax= 5.51D-09  0.00D+00 EMaxC= 1.00D-01 BMatC= 6.31D-15 BMatP= 1.17D-13
 IDIUse=1 WtCom= 1.00D+00 WtEn= 0.00D+00
 Large coefficients: NSaved= 16 BigCof=    0.00 CofMax=   10.00 Det=-4.30D-15
 Inversion failed.  Reducing to 15 matrices.
 Coeff-Com: -0.204D-07 0.494D-06-0.260D-05 0.588D-05-0.133D-04 0.210D-04
 Coeff-Com: -0.970D-04 0.268D-03-0.114D-02 0.390D-02-0.428D-02-0.399D-01
 Coeff-Com:  0.302D+00-0.806D+00 0.154D+01
 Coeff:     -0.204D-07 0.494D-06-0.260D-05 0.588D-05-0.133D-04 0.210D-04
 Coeff:     -0.970D-04 0.268D-03-0.114D-02 0.390D-02-0.428D-02-0.399D-01
 Coeff:      0.302D+00-0.806D+00 0.154D+01
 Gap=     0.603 Goal=   None    Shift=    0.000
 Gap=     0.652 Goal=   None    Shift=    0.000
 RMSDP=4.31D-09 MaxDP=3.74D-08 DE=-3.98D-13 OVMax= 3.91D-08

 SCF Done:  E(UHF) =  -116.984796071     A.U. after   16 cycles
            NFock= 16  Conv=0.43D-08     -V/T= 2.0017
 <Sx>= 0.0000 <Sy>= 0.0000 <Sz>= 0.5000 <S**2>= 0.7648 S= 0.5074
 <L.S>=  0.00000000000    
 KE= 1.167860623525D+02 PE=-4.229395907620D+02 EE= 1.134394512228D+02
 Annihilation of the first spin contaminant:
 S**2 before annihilation     0.7648,   after     0.7502
 Leave Link  502 at Sun May 22 09:08:31 2022, MaxMem=   939524096 cpu:         1.3
 (Enter /Local/ce_dana/g09/l508.exe)
 QCSCF skips out because SCF is already converged.
 Leave Link  508 at Sun May 22 09:08:31 2022, MaxMem=   939524096 cpu:         0.0
 (Enter /Local/ce_dana/g09/l801.exe)
 Range of M.O.s used for correlation:     1    41
 NBasis=    41 NAE=    13 NBE=    12 NFC=     0 NFV=     0
 NROrb=     41 NOA=    13 NOB=    12 NVA=    28 NVB=    29
 Leave Link  801 at Sun May 22 09:08:31 2022, MaxMem=   939524096 cpu:         0.0
 (Enter /Local/ce_dana/g09/l1101.exe)
 Using compressed storage, NAtomX=    10.
 Will process     11 centers per pass.
 Leave Link 1101 at Sun May 22 09:08:31 2022, MaxMem=   939524096 cpu:         0.9
 (Enter /Local/ce_dana/g09/l1102.exe)
 Symmetrizing basis deriv contribution to polar:
 IMax=3 JMax=2 DiffMx= 0.00D+00
 Leave Link 1102 at Sun May 22 09:08:32 2022, MaxMem=   939524096 cpu:         0.1
 (Enter /Local/ce_dana/g09/l1110.exe)
 Forming Gx(P) for the SCF density, NAtomX=    10.
 Integral derivatives from FoFJK, PRISM(SPDF).
 Do as many integral derivatives as possible in FoFJK.
 G2DrvN: MDV=     939523912.
 G2DrvN: will do    11 centers at a time, making    1 passes.
 Calling FoFCou, ICntrl=  3107 FMM=F I1Cent=   0 AccDes= 0.00D+00.
 FoFJK:  IHMeth= 1 ICntrl=    3107 DoSepK=F KAlg= 0 I1Cent=   0 FoldK=F
 IRaf=         0 NMat=   1 IRICut=       1 DoRegI=T DoRafI=F ISym2E= 0.
 FoFCou: FMM=F IPFlag=           0 FMFlag=      100000 FMFlg1=           0
         NFxFlg=           0 DoJE=F BraDBF=F KetDBF=F FulRan=T
         wScrn=  0.000000 ICntrl=    3107 IOpCl=  1 I1Cent=           0 NGrid=           0
         NMat0=    1 NMatS0=      1 NMatT0=    0 NMatD0=    1 NMtDS0=    0 NMtDT0=    0
 Symmetry not used in FoFCou.
 End of G2Drv F.D. properties file   721 does not exist.
 End of G2Drv F.D. properties file   722 does not exist.
 End of G2Drv F.D. properties file   788 does not exist.
 Leave Link 1110 at Sun May 22 09:08:32 2022, MaxMem=   939524096 cpu:         0.6
 (Enter /Local/ce_dana/g09/l1002.exe)
 Minotr:  UHF open shell wavefunction.
          IDoAtm=1111111111
          Direct CPHF calculation.
          Differentiating once with respect to nuclear coordinates.
          Requested convergence is 1.0D-08 RMS, and 1.0D-07 maximum.
          Secondary convergence is 1.0D-12 RMS, and 1.0D-12 maximum.
          NewPWx=T KeepS1=F KeepF1=F KeepIn=T MapXYZ=F SortEE=F KeepMc=T.
          MDV=     939523910 using IRadAn=       2.
 Keep R1 and R2 ints in memory in canonical form, NReq=1562566.
 FoFCou: FMM=F IPFlag=           0 FMFlag=           0 FMFlg1=           0
         NFxFlg=           0 DoJE=F BraDBF=F KetDBF=F FulRan=T
         wScrn=  0.000000 ICntrl=     600 IOpCl=  0 I1Cent=           0 NGrid=           0
         NMat0=    1 NMatS0=    861 NMatT0=    0 NMatD0=    1 NMtDS0=    0 NMtDT0=    0
 Symmetry not used in FoFCou.
          Solving linear equations simultaneously, MaxMat=       0.
          There are    33 degrees of freedom in the 1st order CPHF.  IDoFFX=6 NUNeed=     0.
     27 vectors produced by pass  0 Test12= 2.16D-15 3.03D-09 XBig12= 8.34D-02 8.13D-02.
 AX will form    27 AO Fock derivatives at one time.
     27 vectors produced by pass  1 Test12= 2.16D-15 3.03D-09 XBig12= 1.99D-03 1.29D-02.
     27 vectors produced by pass  2 Test12= 2.16D-15 3.03D-09 XBig12= 6.41D-05 2.45D-03.
     27 vectors produced by pass  3 Test12= 2.16D-15 3.03D-09 XBig12= 1.01D-06 1.85D-04.
     27 vectors produced by pass  4 Test12= 2.16D-15 3.03D-09 XBig12= 1.97D-08 3.26D-05.
     27 vectors produced by pass  5 Test12= 2.16D-15 3.03D-09 XBig12= 2.22D-10 2.58D-06.
     27 vectors produced by pass  6 Test12= 2.16D-15 3.03D-09 XBig12= 2.23D-12 3.31D-07.
     10 vectors produced by pass  7 Test12= 2.16D-15 3.03D-09 XBig12= 1.75D-14 2.11D-08.
 InvSVY:  IOpt=1 It=  1 EMax= 2.78D-15
 Solved reduced A of dimension   199 with    27 vectors.
 End of Minotr F.D. properties file   721 does not exist.
 End of Minotr F.D. properties file   722 does not exist.
 End of Minotr F.D. properties file   788 does not exist.
 Leave Link 1002 at Sun May 22 09:08:32 2022, MaxMem=   939524096 cpu:         1.9
 (Enter /Local/ce_dana/g09/l601.exe)
 Copying SCF densities to generalized density rwf, IOpCl= 1 IROHF=0.

 **********************************************************************

            Population analysis using the SCF density.

 **********************************************************************

 Orbital symmetries:
 Alpha Orbitals:
       Occupied  (A) (A) (A) (A) (A) (A) (A) (A) (A) (A) (A) (A)
                 (A)
       Virtual   (A) (A) (A) (A) (A) (A) (A) (A) (A) (A) (A) (A)
                 (A) (A) (A) (A) (A) (A) (A) (A) (A) (A) (A) (A)
                 (A) (A) (A) (A)
 Beta  Orbitals:
       Occupied  (A) (A) (A) (A) (A) (A) (A) (A) (A) (A) (A) (A)
       Virtual   (A) (A) (A) (A) (A) (A) (A) (A) (A) (A) (A) (A)
                 (A) (A) (A) (A) (A) (A) (A) (A) (A) (A) (A) (A)
                 (A) (A) (A) (A) (A)
 The electronic state is 2-A.
 Alpha  occ. eigenvalues --  -11.16751 -11.15350 -11.15314  -1.06813  -0.93709
 Alpha  occ. eigenvalues --   -0.78724  -0.62085  -0.60598  -0.56244  -0.54150
 Alpha  occ. eigenvalues --   -0.48798  -0.48786  -0.32479
 Alpha virt. eigenvalues --    0.27867   0.29506   0.32903   0.35165   0.36130
 Alpha virt. eigenvalues --    0.36581   0.37109   0.45723   0.49113   0.87705
 Alpha virt. eigenvalues --    0.94447   0.94993   1.00340   1.00591   1.06588
 Alpha virt. eigenvalues --    1.14243   1.22784   1.24039   1.25590   1.33158
 Alpha virt. eigenvalues --    1.34215   1.37048   1.38689   1.41034   1.43071
 Alpha virt. eigenvalues --    1.78839   2.16710   2.18822
  Beta  occ. eigenvalues --  -11.15715 -11.15680 -11.14207  -1.02622  -0.93739
  Beta  occ. eigenvalues --   -0.73441  -0.61002  -0.56591  -0.55308  -0.53156
  Beta  occ. eigenvalues --   -0.48173  -0.48028
  Beta virt. eigenvalues --    0.17210   0.28193   0.30005   0.33283   0.36720
  Beta virt. eigenvalues --    0.37001   0.37091   0.38647   0.48249   0.50425
  Beta virt. eigenvalues --    0.87713   0.95239   0.99583   1.01329   1.02133
  Beta virt. eigenvalues --    1.14216   1.15784   1.24137   1.24316   1.27084
  Beta virt. eigenvalues --    1.34090   1.34816   1.37539   1.39816   1.41316
  Beta virt. eigenvalues --    1.43520   1.81492   2.18543   2.18672
          Condensed to atoms (all electrons):
               1          2          3          4          5          6
     1  C    5.364524   0.251562  -0.084909   0.379610   0.378392   0.370404
     2  C    0.251562   5.600065   0.251562  -0.051601  -0.044615  -0.058941
     3  C   -0.084909   0.251562   5.364524  -0.000988   0.003160   0.001282
     4  H    0.379610  -0.051601  -0.000988   0.514509  -0.023051  -0.028058
     5  H    0.378392  -0.044615   0.003160  -0.023051   0.508270  -0.025801
     6  H    0.370404  -0.058941   0.001282  -0.028058  -0.025801   0.533576
     7  H   -0.038582   0.393414  -0.038582   0.002271  -0.002336   0.000853
     8  H    0.001282  -0.058941   0.370404  -0.000221  -0.000079   0.001551
     9  H    0.003160  -0.044615   0.378392   0.000018  -0.000066  -0.000079
    10  H   -0.000988  -0.051601   0.379610   0.002901   0.000018  -0.000221
               7          8          9         10
     1  C   -0.038582   0.001282   0.003160  -0.000988
     2  C    0.393414  -0.058941  -0.044615  -0.051601
     3  C   -0.038582   0.370404   0.378392   0.379610
     4  H    0.002271  -0.000221   0.000018   0.002901
     5  H   -0.002336  -0.000079  -0.000066   0.000018
     6  H    0.000853   0.001551  -0.000079  -0.000221
     7  H    0.479280   0.000853  -0.002336   0.002271
     8  H    0.000853   0.533576  -0.025801  -0.028058
     9  H   -0.002336  -0.025801   0.508270  -0.023051
    10  H    0.002271  -0.028058  -0.023051   0.514508
          Atomic-Atomic Spin Densities.
               1          2          3          4          5          6
     1  C   -0.186623  -0.070315   0.003458   0.012088   0.009715   0.016761
     2  C   -0.070315   1.545749  -0.070315  -0.013476  -0.007295  -0.030373
     3  C    0.003458  -0.070315  -0.186623   0.001000   0.000091   0.000509
     4  H    0.012088  -0.013476   0.001000   0.041833   0.001578  -0.011278
     5  H    0.009715  -0.007295   0.000091   0.001578   0.019131  -0.006415
     6  H    0.016761  -0.030373   0.000509  -0.011278  -0.006415   0.103895
     7  H    0.003175  -0.021140   0.003174   0.000045   0.000672  -0.000510
     8  H    0.000509  -0.030373   0.016761  -0.000567  -0.000054   0.001906
     9  H    0.000091  -0.007295   0.009715   0.000049   0.000005  -0.000054
    10  H    0.001000  -0.013476   0.012088   0.001405   0.000049  -0.000567
               7          8          9         10
     1  C    0.003175   0.000509   0.000091   0.001000
     2  C   -0.021140  -0.030373  -0.007295  -0.013476
     3  C    0.003174   0.016761   0.009715   0.012088
     4  H    0.000045  -0.000567   0.000049   0.001405
     5  H    0.000672  -0.000054   0.000005   0.000049
     6  H   -0.000510   0.001906  -0.000054  -0.000567
     7  H   -0.095083  -0.000510   0.000672   0.000045
     8  H   -0.000510   0.103895  -0.006415  -0.011278
     9  H    0.000672  -0.006415   0.019131   0.001578
    10  H    0.000045  -0.011278   0.001578   0.041834
 Mulliken charges and spin densities:
               1          2
     1  C   -0.624454  -0.210142
     2  C   -0.186289   1.281690
     3  C   -0.624455  -0.210142
     4  H    0.204611   0.032676
     5  H    0.206107   0.017476
     6  H    0.205435   0.073875
     7  H    0.202892  -0.109460
     8  H    0.205435   0.073875
     9  H    0.206107   0.017476
    10  H    0.204611   0.032676
 Sum of Mulliken charges =  -0.00000   1.00000
 Mulliken charges and spin densities with hydrogens summed into heavy atoms:
               1          2
     1  C   -0.008302  -0.086115
     2  C    0.016603   1.172230
     3  C   -0.008302  -0.086115
 APT charges:
               1
     1  C   -1.327370
     2  C   -0.149209
     3  C   -1.327370
     4  H    0.366658
     5  H    0.448309
     6  H    0.370574
     7  H    0.432869
     8  H    0.370574
     9  H    0.448309
    10  H    0.366658
 Sum of APT charges =  -0.00000
 APT charges with hydrogens summed into heavy atoms:
               1
     1  C   -0.141830
     2  C    0.283659
     3  C   -0.141829
 Electronic spatial extent (au):  <R**2>=            217.7206
 Charge=             -0.0000 electrons
 Dipole moment (field-independent basis, Debye):
    X=             -0.0000    Y=             -0.0245    Z=              0.1782  Tot=              0.1799
 Quadrupole moment (field-independent basis, Debye-Ang):
   XX=            -21.1576   YY=            -20.7103   ZZ=            -21.7405
   XY=              0.0000   XZ=             -0.0000   YZ=              0.2880
 Traceless Quadrupole moment (field-independent basis, Debye-Ang):
   XX=              0.0452   YY=              0.4925   ZZ=             -0.5377
   XY=              0.0000   XZ=             -0.0000   YZ=              0.2880
 Octapole moment (field-independent basis, Debye-Ang**2):
  XXX=             -0.0000  YYY=              1.1685  ZZZ=              1.2884  XYY=             -0.0000
  XXY=              1.2478  XXZ=             -0.4812  XZZ=              0.0000  YZZ=             -1.4694
  YYZ=             -0.4426  XYZ=             -0.0000
 Hexadecapole moment (field-independent basis, Debye-Ang**3):
 XXXX=           -203.5860 YYYY=            -56.0533 ZZZZ=            -35.3339 XXXY=              0.0000
 XXXZ=             -0.0000 YYYX=             -0.0000 YYYZ=              1.8318 ZZZX=              0.0000
 ZZZY=             -0.0664 XXYY=            -43.1609 XXZZ=            -39.5815 YYZZ=            -15.6392
 XXYZ=             -0.9399 YYXZ=             -0.0000 ZZXY=              0.0000
 N-N= 7.572928111574D+01 E-N=-4.229395908028D+02  KE= 1.167860623525D+02
  Exact polarizability:   0.000   0.000   0.000   0.000   0.000   0.000
 Approx polarizability:  24.028   0.000  24.937  -0.000   0.218  20.537
                          Isotropic Fermi Contact Couplings
        Atom                 a.u.       MegaHertz       Gauss      10(-4) cm-1
     1  C(13)             -0.05854     -65.80773     -23.48183     -21.95109
     2  C(13)              0.25163     282.87956     100.93846      94.35847
     3  C(13)             -0.05854     -65.80771     -23.48183     -21.95109
     4  H(1)               0.01124      50.22480      17.92146      16.75319
     5  H(1)               0.00595      26.59854       9.49102       8.87232
     6  H(1)               0.02666     119.15293      42.51673      39.74514
     7  H(1)              -0.02729    -121.96905     -43.52159     -40.68450
     8  H(1)               0.02666     119.15287      42.51670      39.74512
     9  H(1)               0.00595      26.59836       9.49096       8.87226
    10  H(1)               0.01124      50.22499      17.92152      16.75325
 --------------------------------------------------------
       Center         ----  Spin Dipole Couplings  ----
                      3XX-RR        3YY-RR        3ZZ-RR
 --------------------------------------------------------
     1   Atom        0.002903      0.001118     -0.004021
     2   Atom       -0.491451     -0.470777      0.962227
     3   Atom        0.002903      0.001118     -0.004021
     4   Atom        0.004939      0.003869     -0.008808
     5   Atom        0.018482     -0.012887     -0.005596
     6   Atom        0.011107      0.002242     -0.013349
     7   Atom       -0.080162      0.091912     -0.011750
     8   Atom        0.011107      0.002242     -0.013349
     9   Atom        0.018482     -0.012887     -0.005596
    10   Atom        0.004939      0.003869     -0.008808
 --------------------------------------------------------
                        XY            XZ            YZ
 --------------------------------------------------------
     1   Atom       -0.000013     -0.000566      0.000233
     2   Atom        0.000000     -0.000000     -0.111217
     3   Atom        0.000013      0.000566      0.000233
     4   Atom       -0.015737     -0.004646     -0.002526
     5   Atom       -0.007791      0.001020      0.002246
     6   Atom       -0.011226      0.007227     -0.001916
     7   Atom        0.000000      0.000000      0.020677
     8   Atom        0.011226     -0.007227     -0.001916
     9   Atom        0.007791     -0.001020      0.002246
    10   Atom        0.015737      0.004646     -0.002526
 --------------------------------------------------------


 ---------------------------------------------------------------------------------
              Anisotropic Spin Dipole Couplings in Principal Axis System
 ---------------------------------------------------------------------------------

       Atom             a.u.   MegaHertz   Gauss  10(-4) cm-1        Axes

              Baa    -0.0041    -0.547    -0.195    -0.183  0.0807 -0.0444  0.9957
     1 C(13)  Bbb     0.0011     0.151     0.054     0.050  0.0208  0.9989  0.0429
              Bcc     0.0029     0.396     0.141     0.132  0.9965 -0.0172 -0.0815
 
              Baa    -0.4915   -65.948   -23.532   -21.998  1.0000  0.0000  0.0000
     2 C(13)  Bbb    -0.4794   -64.325   -22.953   -21.457 -0.0000  0.9970  0.0769
              Bcc     0.9708   130.273    46.485    43.454 -0.0000 -0.0769  0.9970
 
              Baa    -0.0041    -0.547    -0.195    -0.183 -0.0807 -0.0444  0.9957
     3 C(13)  Bbb     0.0011     0.151     0.054     0.050 -0.0208  0.9989  0.0429
              Bcc     0.0029     0.396     0.141     0.132  0.9965  0.0172  0.0815
 
              Baa    -0.0153    -8.165    -2.914    -2.724  0.5663  0.5461  0.6173
     4 H(1)   Bbb    -0.0049    -2.633    -0.940    -0.878 -0.3938 -0.4787  0.7847
              Bcc     0.0202    10.799     3.853     3.602  0.7241 -0.6874 -0.0560
 
              Baa    -0.0153    -8.173    -2.916    -2.726  0.2249  0.9439 -0.2417
     5 H(1)   Bbb    -0.0050    -2.669    -0.952    -0.890  0.0373  0.2395  0.9702
              Bcc     0.0203    10.842     3.869     3.616  0.9737 -0.2272  0.0187
 
              Baa    -0.0154    -8.227    -2.935    -2.744 -0.2949 -0.0842  0.9518
     6 H(1)   Bbb    -0.0048    -2.570    -0.917    -0.857  0.4905  0.8415  0.2264
              Bcc     0.0202    10.797     3.853     3.601  0.8200 -0.5336  0.2069
 
              Baa    -0.0802   -42.771   -15.262   -14.267  1.0000 -0.0000  0.0000
     7 H(1)   Bbb    -0.0157    -8.389    -2.993    -2.798 -0.0000 -0.1887  0.9820
              Bcc     0.0959    51.159    18.255    17.065  0.0000  0.9820  0.1887
 
              Baa    -0.0154    -8.227    -2.935    -2.744  0.2949 -0.0842  0.9518
     8 H(1)   Bbb    -0.0048    -2.570    -0.917    -0.857 -0.4905  0.8415  0.2264
              Bcc     0.0202    10.797     3.853     3.601  0.8200  0.5336 -0.2069
 
              Baa    -0.0153    -8.173    -2.916    -2.726 -0.2249  0.9439 -0.2417
     9 H(1)   Bbb    -0.0050    -2.669    -0.952    -0.890 -0.0373  0.2395  0.9702
              Bcc     0.0203    10.842     3.869     3.616  0.9737  0.2272 -0.0187
 
              Baa    -0.0153    -8.165    -2.914    -2.724 -0.5663  0.5461  0.6173
    10 H(1)   Bbb    -0.0049    -2.633    -0.940    -0.878  0.3938 -0.4787  0.7847
              Bcc     0.0202    10.799     3.853     3.602  0.7241  0.6874  0.0560
 

 ---------------------------------------------------------------------------------

 No NMR shielding tensors so no spin-rotation constants.
 Leave Link  601 at Sun May 22 09:08:32 2022, MaxMem=   939524096 cpu:         1.8
 (Enter /Local/ce_dana/g09/l701.exe)
 Compute integral second derivatives.
 ... and contract with generalized density number  0.
 Leave Link  701 at Sun May 22 09:08:33 2022, MaxMem=   939524096 cpu:         1.1
 (Enter /Local/ce_dana/g09/l702.exe)
 L702 exits ... SP integral derivatives will be done elsewhere.
 Leave Link  702 at Sun May 22 09:08:33 2022, MaxMem=   939524096 cpu:         0.1
 (Enter /Local/ce_dana/g09/l703.exe)
 Compute integral second derivatives, UseDBF=F ICtDFT=           0.
 Integral derivatives from FoFJK, PRISM(SPDF).
 Calling FoFJK, ICntrl=    100147 FMM=F ISym2X=0 I1Cent= 0 IOpClX= 1 NMat=1 NMatS=1 NMatT=0.
 FoFJK:  IHMeth= 1 ICntrl=  100147 DoSepK=F KAlg= 0 I1Cent=   0 FoldK=F
 IRaf=         0 NMat=   1 IRICut=       1 DoRegI=T DoRafI=F ISym2E= 0.
 FoFCou: FMM=F IPFlag=           0 FMFlag=      100000 FMFlg1=         800
         NFxFlg=           0 DoJE=F BraDBF=F KetDBF=F FulRan=T
         wScrn=  0.000000 ICntrl=  100147 IOpCl=  1 I1Cent=           0 NGrid=           0
         NMat0=    1 NMatS0=      1 NMatT0=    0 NMatD0=    1 NMtDS0=    0 NMtDT0=    0
 Symmetry not used in FoFCou.
 Leave Link  703 at Sun May 22 09:08:33 2022, MaxMem=   939524096 cpu:         0.6
 (Enter /Local/ce_dana/g09/l716.exe)
 Dipole        =-2.07183075D-07-9.65782419D-03 7.01071363D-02
 Polarizability= 0.00000000D+00 0.00000000D+00 0.00000000D+00
                 0.00000000D+00 0.00000000D+00 0.00000000D+00
 ***** Axes restored to original set *****
 -------------------------------------------------------------------
 Center     Atomic                   Forces (Hartrees/Bohr)
 Number     Number              X              Y              Z
 -------------------------------------------------------------------
      1        6           0.012959730   -0.000229141    0.003366101
      2        6          -0.000903823   -0.008532705    0.012755616
      3        6          -0.012557749    0.002890138    0.003644678
      4        1          -0.000205466   -0.005967217   -0.001943328
      5        1          -0.002053381    0.002390935   -0.006859579
      6        1           0.002825765    0.003659905    0.001250706
      7        1           0.000627449    0.005550368   -0.004675808
      8        1          -0.001833431    0.004229457    0.001301478
      9        1           0.002420585    0.001843973   -0.006908232
     10        1          -0.001279678   -0.005835712   -0.001931633
 -------------------------------------------------------------------
 Cartesian Forces:  Max     0.012959730 RMS     0.005436828
 Force constants in Cartesian coordinates: 
                1             2             3             4             5 
      1  0.547454D+00
      2 -0.183260D-01  0.589122D+00
      3  0.357924D-01 -0.182352D-01  0.554729D+00
      4 -0.211530D+00 -0.248252D-01  0.543133D-01  0.561886D+00
      5 -0.247024D-01 -0.865592D-01  0.392765D-01 -0.198825D-01  0.426152D+00
      6  0.494920D-01  0.378328D-01 -0.924957D-01 -0.355678D-01 -0.269672D+00
      7 -0.248759D-01  0.141666D-01 -0.161198D-01 -0.194416D+00  0.522353D-01
      8 -0.699878D-02  0.450954D-02 -0.358722D-02  0.523143D-01 -0.105651D+00
      9  0.155201D-01 -0.768625D-02  0.103318D-01 -0.409201D-01  0.500556D-01
     10 -0.627275D-01 -0.240747D-01 -0.168282D-02 -0.544043D-02 -0.361429D-01
     11 -0.237049D-01 -0.309874D+00  0.254051D-01 -0.158551D-02 -0.711861D-02
     12  0.328021D-04  0.256494D-01 -0.586278D-01  0.418794D-02  0.179036D-01
     13 -0.190724D+00  0.575853D-01 -0.111709D+00 -0.294369D-01  0.163473D-01
     14  0.605634D-01 -0.904174D-01  0.526262D-01 -0.767721D-02  0.319409D-02
     15 -0.115411D+00  0.531792D-01 -0.154513D+00  0.159996D-01 -0.710142D-02
     16 -0.578026D-01  0.160014D-01  0.259944D-01 -0.113129D-01  0.108535D-01
     17  0.104099D-01 -0.105494D+00 -0.975212D-01 -0.134762D-02  0.616236D-02
     18  0.175589D-01 -0.102174D+00 -0.256191D+00  0.998534D-02 -0.134255D-02
     19 -0.434863D-04 -0.259703D-01  0.157087D-01 -0.699145D-01 -0.182434D-01
     20  0.300043D-02 -0.910402D-03  0.889879D-03 -0.181614D-01 -0.230957D+00
     21 -0.153581D-02  0.107297D-01 -0.312492D-02  0.183008D-01  0.154837D+00
     22  0.153761D-02 -0.266041D-03  0.670071D-03 -0.134229D-01 -0.610643D-02
     23 -0.887628D-03  0.171610D-03 -0.197912D-03  0.639039D-02  0.732122D-02
     24 -0.693777D-04  0.134017D-03  0.343717D-03 -0.100092D-01  0.128976D-02
     25 -0.317143D-02  0.434483D-02 -0.358306D-02 -0.295085D-01 -0.833044D-02
     26  0.143428D-02 -0.120749D-02  0.183625D-02  0.156145D-01  0.336461D-02
     27 -0.218235D-02  0.124647D-02 -0.693846D-03 -0.163487D-01 -0.287740D-02
     28  0.188372D-02  0.136410D-02  0.616299D-03  0.309543D-02  0.339720D-01
     29 -0.788261D-03  0.659102D-03 -0.492517D-03 -0.839737D-03 -0.159087D-01
     30  0.802714D-03 -0.676412D-03  0.242490D-03  0.586775D-04  0.176314D-01
                6             7             8             9            10 
      6  0.326506D+00
      7 -0.365888D-01  0.556758D+00
      8  0.474909D-01  0.258438D-01  0.578184D+00
      9 -0.905179D-01 -0.391076D-01 -0.957358D-02  0.556364D+00
     10  0.103228D-01  0.164165D-02 -0.162464D-02 -0.751196D-03  0.675595D-01
     11  0.495432D-02  0.530683D-03  0.866855D-03 -0.339428D-03  0.284626D-01
     12 -0.563649D-02 -0.970750D-03 -0.426651D-03  0.276820D-03 -0.599476D-02
     13 -0.213250D-01 -0.427069D-02 -0.354513D-02  0.398757D-02  0.329150D-02
     14 -0.597702D-02 -0.626257D-03  0.253652D-04  0.934719D-03  0.287146D-01
     15  0.997051D-02  0.249370D-02  0.762455D-03 -0.827442D-03 -0.146705D-02
     16  0.351879D-01  0.171456D-02 -0.115950D-03 -0.727813D-03  0.380195D-03
     17  0.945821D-02  0.500296D-03 -0.190577D-04 -0.424154D-04  0.412477D-02
     18 -0.139474D-01  0.714414D-04  0.114926D-03  0.357411D-03 -0.139785D-02
     19  0.192182D-01  0.503760D-02  0.246847D-01 -0.151424D-01 -0.473565D-02
     20  0.162341D+00 -0.444559D-02 -0.626852D-02  0.473587D-02 -0.113513D-02
     21 -0.125372D+00  0.388826D-02  0.950670D-02 -0.284787D-02  0.111117D-02
     22 -0.319002D-01 -0.687781D-01 -0.275174D-01 -0.528292D-01 -0.135481D-03
     23  0.175779D-01 -0.218049D-01 -0.960715D-01 -0.875186D-01  0.255038D-03
     24 -0.129963D-01 -0.457481D-01 -0.939448D-01 -0.254639D+00 -0.152790D-04
     25  0.200845D-01 -0.207212D+00 -0.270766D-01  0.122161D+00  0.593463D-03
     26 -0.112935D-01 -0.300562D-01 -0.687435D-01  0.250479D-01  0.270178D-03
     27  0.987157D-02  0.125880D+00  0.246288D-01 -0.159700D+00  0.982200D-04
     28 -0.892360D-02 -0.655982D-01 -0.359642D-01  0.780926D-02 -0.427259D-03
     29  0.728759D-02 -0.363437D-01 -0.306833D+00  0.243861D-01  0.115021D-02
     30 -0.538223D-02  0.620203D-02  0.250285D-01 -0.587983D-01 -0.223196D-03
               11            12            13            14            15 
     11  0.343260D+00
     12 -0.310592D-01  0.620926D-01
     13 -0.634911D-03  0.345457D-02  0.216710D+00
     14 -0.115655D-01  0.237780D-01 -0.673562D-01  0.916478D-01
     15  0.131919D-02 -0.264055D-02  0.123997D+00 -0.599172D-01  0.168280D+00
     16 -0.951287D-03 -0.343377D-02  0.390619D-02 -0.135249D-01 -0.257655D-01
     17 -0.168773D-01 -0.358293D-01 -0.225614D-02  0.576619D-02  0.122451D-01
     18  0.146495D-02  0.448351D-02  0.213280D-02 -0.106211D-01 -0.215278D-01
     19 -0.134373D-02  0.294496D-02  0.157585D-02  0.612565D-04 -0.646938D-03
     20  0.694379D-04  0.677340D-03 -0.605798D-03  0.381504D-03 -0.370902D-03
     21 -0.128743D-02 -0.232865D-03  0.151674D-03 -0.880401D-03  0.103842D-02
     22 -0.666935D-05 -0.139326D-03  0.916410D-05  0.300654D-03  0.303064D-03
     23 -0.571013D-04 -0.216198D-03 -0.122092D-03 -0.593379D-04  0.256106D-04
     24 -0.487662D-04 -0.868014D-05 -0.293169D-03  0.117348D-03  0.170183D-03
     25  0.829184D-04 -0.222417D-03 -0.156720D-02 -0.175991D-03  0.613831D-03
     26  0.473089D-03 -0.291881D-04  0.678843D-03  0.464423D-03 -0.143131D-03
     27 -0.271516D-04 -0.129435D-03 -0.590826D-03  0.134709D-04  0.181208D-03
     28 -0.849166D-03  0.140755D-03  0.505920D-03 -0.279224D-03 -0.116275D-03
     29  0.823120D-03 -0.447908D-03 -0.911184D-04  0.562836D-03  0.108629D-05
     30 -0.381582D-03  0.422863D-03  0.194921D-03 -0.740891D-04 -0.131639D-03
               16            17            18            19            20 
     16  0.650075D-01
     17 -0.115998D-01  0.111254D+00
     18 -0.304700D-01  0.112620D+00  0.286829D+00
     19 -0.788754D-03  0.107848D-03  0.922946D-03  0.719330D-01
     20 -0.447856D-03 -0.808862D-03  0.273539D-03  0.189285D-01  0.239844D+00
     21  0.311207D-03 -0.668655D-03 -0.572340D-03 -0.200948D-01 -0.169820D+00
     22 -0.881130D-03  0.170621D-03  0.872563D-03 -0.738174D-03  0.435023D-03
     23  0.515015D-04  0.340561D-04 -0.333008D-03 -0.142422D-03 -0.886956D-03
     24 -0.899161D-03 -0.117719D-03  0.410751D-03 -0.826673D-03  0.477712D-03
     25 -0.359378D-04  0.117683D-03  0.317551D-03  0.163743D-02  0.284734D-03
     26 -0.304560D-03 -0.139883D-04  0.493567D-04 -0.391025D-03  0.327012D-03
     27 -0.284335D-03  0.948614D-04  0.169934D-03  0.524605D-03 -0.523928D-03
     28 -0.187066D-03 -0.227499D-03  0.631984D-05 -0.396327D-02  0.214715D-02
     29  0.380740D-04 -0.280867D-05 -0.518257D-04  0.230861D-02 -0.789850D-03
     30  0.870740D-04 -0.238536D-03 -0.113814D-04 -0.260869D-02  0.131939D-02
               21            22            23            24            25 
     21  0.130771D+00
     22 -0.458427D-03  0.756546D-01
     23 -0.571904D-03  0.230941D-01  0.102612D+00
     24 -0.544844D-03  0.613102D-01  0.101006D+00  0.284824D+00
     25 -0.371455D-03  0.819239D-02  0.191065D-02 -0.526336D-02  0.235120D+00
     26 -0.811594D-03  0.127582D-01  0.197973D-02 -0.100096D-01  0.300375D-01
     27  0.103133D-02  0.273508D-01  0.570059D-02 -0.220275D-01 -0.136140D+00
     28 -0.130269D-02 -0.143803D-02 -0.874468D-02  0.181402D-02 -0.404732D-02
     29 -0.103326D-02 -0.286212D-02 -0.150432D-01  0.109556D-02 -0.119530D-02
     30 -0.145962D-03 -0.517956D-02 -0.354729D-01  0.446766D-02  0.240298D-02
               26            27            28            29            30 
     26  0.675607D-01
     27 -0.292045D-01  0.173959D+00
     28 -0.300418D-01  0.169285D-02  0.701761D-01
     29 -0.420455D-02  0.948798D-03  0.386234D-01  0.340737D+00
     30  0.245580D-01 -0.266264D-02 -0.173695D-02 -0.316937D-01  0.619991D-01
 FormGI is forming the generalized inverse of G from B-inverse, IUseBI=4.
 Force constants in internal coordinates: 
                1             2             3             4             5 
      1  0.336264D+00
      2  0.833601D-02  0.349609D+00
      3  0.635381D-02  0.394526D-02  0.350220D+00
      4  0.153766D-01  0.464845D-02  0.449948D-02  0.345590D+00
      5  0.650208D-02  0.125007D-02 -0.240167D-03  0.147563D-02  0.336264D+00
      6  0.336773D-02 -0.355027D-03  0.116588D-02  0.528068D-03  0.336772D-02
      7  0.147564D-02  0.474651D-04  0.131007D-03  0.482097D-03  0.153766D-01
      8 -0.240167D-03 -0.203627D-03  0.307450D-03  0.131006D-03  0.635379D-02
      9  0.125006D-02  0.898796D-03 -0.203626D-03  0.474632D-04  0.833601D-02
     10  0.218168D-01  0.383807D-02 -0.788074D-02 -0.839310D-02 -0.269191D-02
     11  0.233898D-01 -0.789895D-02  0.390880D-02 -0.822372D-02  0.490659D-02
     12  0.202301D-01 -0.833103D-02 -0.818434D-02  0.437321D-02 -0.515563D-03
     13 -0.212028D-01  0.682786D-02  0.685482D-02 -0.171438D-02 -0.675644D-03
     14 -0.238693D-01  0.716001D-02 -0.104381D-02  0.731344D-02  0.425867D-03
     15 -0.227224D-01 -0.126200D-02  0.699760D-02  0.699874D-02 -0.146044D-02
     16  0.143034D-01 -0.390555D-02  0.491042D-02 -0.604291D-03  0.143034D-01
     17  0.988227D-02  0.390573D-02 -0.313600D-02  0.129783D-02 -0.237590D-01
     18 -0.237590D-01 -0.101057D-03 -0.168540D-02 -0.661264D-03  0.988228D-02
     19 -0.515564D-03 -0.254527D-03 -0.266623D-03  0.139459D-02  0.202301D-01
     20  0.490660D-02 -0.535057D-04  0.133201D-02  0.198613D-03  0.233898D-01
     21 -0.269192D-02  0.154189D-02 -0.811282D-03 -0.446667D-03  0.218167D-01
     22 -0.146044D-02  0.585179D-04 -0.326461D-03 -0.764032D-03 -0.227224D-01
     23  0.425870D-03 -0.550089D-03  0.184789D-03 -0.357868D-03 -0.238693D-01
     24 -0.675644D-03 -0.790199D-03 -0.106713D-03 -0.726445D-04 -0.212028D-01
     25 -0.472469D-03 -0.311951D-03 -0.567664D-02  0.654657D-02 -0.213141D-02
     26 -0.230674D-02 -0.748140D-03 -0.556438D-02  0.658360D-02  0.115690D-02
     27  0.210744D-02  0.552059D-02  0.382153D-03 -0.623825D-02 -0.150948D-02
     28  0.273176D-03  0.508440D-02  0.494411D-03 -0.620123D-02  0.177883D-02
     29  0.152467D-02 -0.629632D-02  0.637829D-02 -0.300629D-04 -0.531715D-03
     30 -0.309604D-03 -0.673251D-02  0.649055D-02  0.695946D-05  0.275659D-02
     31  0.531714D-03  0.314870D-03 -0.339263D-03  0.148270D-03 -0.152466D-02
     32  0.150947D-02  0.193217D-03 -0.668248D-04  0.205544D-03 -0.210743D-02
     33  0.213141D-02  0.153940D-03  0.146407D-03 -0.401971D-04  0.472478D-03
     34 -0.275659D-02  0.140946D-03 -0.230639D-03 -0.187064D-03  0.309602D-03
     35 -0.177883D-02  0.192919D-04  0.417995D-04 -0.129790D-03 -0.273170D-03
     36 -0.115689D-02 -0.199851D-04  0.255031D-03 -0.375531D-03  0.230674D-02
                6             7             8             9            10 
      6  0.366139D+00
      7  0.528067D-03  0.345591D+00
      8  0.116588D-02  0.449948D-02  0.350221D+00
      9 -0.355024D-03  0.464845D-02  0.394526D-02  0.349610D+00
     10  0.349566D-02 -0.446664D-03 -0.811284D-03  0.154189D-02  0.130272D+00
     11 -0.167446D-02  0.198610D-03  0.133201D-02 -0.535024D-04 -0.268319D-01
     12  0.540619D-03  0.139459D-02 -0.266619D-03 -0.254529D-03 -0.231431D-01
     13 -0.703274D-03 -0.726462D-04 -0.106712D-03 -0.790198D-03 -0.461983D-01
     14 -0.165658D-02 -0.357868D-03  0.184788D-03 -0.550089D-03 -0.481834D-01
     15 -0.112544D-03 -0.764034D-03 -0.326462D-03  0.585189D-04  0.107989D-01
     16 -0.126173D-01 -0.604298D-03  0.491043D-02 -0.390554D-02 -0.111273D-01
     17  0.637164D-02 -0.661265D-03 -0.168540D-02 -0.101059D-03  0.134769D-01
     18  0.637163D-02  0.129784D-02 -0.313601D-02  0.390572D-02 -0.255465D-02
     19  0.540623D-03  0.437320D-02 -0.818434D-02 -0.833102D-02  0.526565D-03
     20 -0.167447D-02 -0.822372D-02  0.390878D-02 -0.789895D-02 -0.172721D-02
     21  0.349566D-02 -0.839310D-02 -0.788074D-02  0.383805D-02  0.114881D-02
     22 -0.112543D-03  0.699875D-02  0.699761D-02 -0.126201D-02  0.646822D-03
     23 -0.165658D-02  0.731344D-02 -0.104381D-02  0.716001D-02 -0.561754D-03
     24 -0.703271D-03 -0.171438D-02  0.685482D-02  0.682787D-02 -0.478579D-04
     25 -0.534250D-03  0.401977D-04 -0.146406D-03 -0.153939D-03  0.132935D-02
     26  0.990736D-03  0.375533D-03 -0.255031D-03  0.199830D-04  0.905673D-04
     27 -0.272566D-03 -0.205545D-03  0.668244D-04 -0.193215D-03  0.919128D-02
     28  0.125242D-02  0.129790D-03 -0.418002D-04 -0.192926D-04  0.795250D-02
     29 -0.113358D-02 -0.148272D-03  0.339263D-03 -0.314867D-03 -0.901418D-02
     30  0.391409D-03  0.187062D-03  0.230638D-03 -0.140944D-03 -0.102530D-01
     31  0.113358D-02  0.300546D-04 -0.637829D-02  0.629632D-02  0.856393D-03
     32  0.272569D-03  0.623825D-02 -0.382148D-03 -0.552059D-02  0.893849D-03
     33  0.534251D-03 -0.654658D-02  0.567664D-02  0.311952D-03  0.446933D-03
     34 -0.391410D-03 -0.696752D-05 -0.649055D-02  0.673251D-02 -0.345951D-03
     35 -0.125242D-02  0.620123D-02 -0.494408D-03 -0.508440D-02 -0.308496D-03
     36 -0.990737D-03 -0.658360D-02  0.556438D-02  0.748143D-03 -0.755412D-03
               11            12            13            14            15 
     11  0.134354D+00
     12 -0.220548D-01  0.125430D+00
     13 -0.487145D-01  0.919836D-02  0.681696D-01
     14  0.103951D-01 -0.472408D-01  0.101916D-01  0.683826D-01
     15 -0.491954D-01 -0.458130D-01  0.102955D-01  0.959979D-02  0.675276D-01
     16  0.187527D-01 -0.516684D-02 -0.267662D-02  0.471193D-02 -0.438822D-02
     17 -0.129695D-01  0.231918D-02 -0.265772D-03 -0.536021D-02  0.255116D-02
     18 -0.538514D-02  0.251840D-02  0.288642D-02  0.833808D-03  0.185389D-02
     19 -0.888209D-03  0.147053D-02  0.732647D-04 -0.654804D-03 -0.586039D-03
     20  0.421106D-02 -0.888203D-03 -0.951802D-03  0.463658D-03 -0.112332D-02
     21 -0.172720D-02  0.526561D-03 -0.478580D-04 -0.561755D-03  0.646824D-03
     22 -0.112331D-02 -0.586042D-03  0.224886D-03  0.853328D-04  0.785141D-03
     23  0.463658D-03 -0.654804D-03  0.113254D-03  0.588330D-03  0.853330D-04
     24 -0.951805D-03  0.732660D-04  0.614008D-03  0.113256D-03  0.224885D-03
     25 -0.101292D-01  0.975918D-02 -0.119174D-01  0.108954D-01 -0.281441D-03
     26 -0.929422D-02  0.875657D-02 -0.117106D-01  0.118004D-01  0.794480D-04
     27 -0.948834D-03 -0.774955D-02  0.121276D-01 -0.295680D-03 -0.124166D-01
     28 -0.113847D-03 -0.875216D-02  0.123345D-01  0.609322D-03 -0.120557D-01
     29  0.942390D-02  0.462734D-03 -0.220461D-03 -0.115475D-01  0.112054D-01
     30  0.102589D-01 -0.539878D-03 -0.135789D-04 -0.106425D-01  0.115663D-01
     31 -0.788197D-03 -0.456389D-03 -0.209267D-04 -0.237781D-04  0.440673D-03
     32 -0.684328D-04 -0.820030D-03 -0.299804D-03 -0.362080D-04  0.332098D-03
     33  0.372544D-03 -0.968746D-03 -0.181107D-03  0.478719D-04  0.296536D-03
     34 -0.468318D-03  0.576559D-03  0.252177D-03  0.143839D-04 -0.263898D-04
     35  0.251446D-03  0.212919D-03 -0.267010D-04  0.195403D-05 -0.134965D-03
     36  0.692424D-03  0.642021D-04  0.919963D-04  0.860339D-04 -0.170526D-03
               16            17            18            19            20 
     16  0.125442D+00
     17 -0.615516D-01  0.961337D-01
     18 -0.615516D-01 -0.356869D-01  0.961337D-01
     19 -0.516687D-02  0.251840D-02  0.231921D-02  0.125430D+00
     20  0.187527D-01 -0.538515D-02 -0.129695D-01 -0.220548D-01  0.134354D+00
     21 -0.111273D-01 -0.255463D-02  0.134769D-01 -0.231431D-01 -0.268319D-01
     22 -0.438821D-02  0.185389D-02  0.255115D-02 -0.458130D-01 -0.491954D-01
     23  0.471194D-02  0.833804D-03 -0.536022D-02 -0.472408D-01  0.103951D-01
     24 -0.267663D-02  0.288642D-02 -0.265765D-03  0.919837D-02 -0.487145D-01
     25 -0.108300D-02  0.532170D-02 -0.450437D-02  0.968744D-03 -0.372543D-03
     26 -0.758912D-03 -0.468976D-02  0.555652D-02 -0.641987D-04 -0.692422D-03
     27  0.643597D-03  0.516347D-02 -0.601519D-02  0.820025D-03  0.684332D-04
     28  0.967684D-03 -0.484800D-02  0.404569D-02 -0.212917D-03 -0.251446D-03
     29  0.384708D-02  0.155909D-02 -0.554826D-02  0.456384D-03  0.788198D-03
     30  0.417116D-02 -0.845237D-02  0.451262D-02 -0.576558D-03  0.468319D-03
     31 -0.384707D-02  0.554826D-02 -0.155910D-02 -0.462724D-03 -0.942390D-02
     32 -0.643597D-03  0.601519D-02 -0.516346D-02  0.774954D-02  0.948825D-03
     33  0.108301D-02  0.450437D-02 -0.532171D-02 -0.975919D-02  0.101292D-01
     34 -0.417116D-02 -0.451262D-02  0.845237D-02  0.539889D-03 -0.102589D-01
     35 -0.967687D-03 -0.404569D-02  0.484800D-02  0.875216D-02  0.113835D-03
     36  0.758919D-03 -0.555652D-02  0.468976D-02 -0.875658D-02  0.929422D-02
               21            22            23            24            25 
     21  0.130272D+00
     22  0.107989D-01  0.675276D-01
     23 -0.481834D-01  0.959978D-02  0.683826D-01
     24 -0.461983D-01  0.102955D-01  0.101915D-01  0.681696D-01
     25 -0.446934D-03 -0.296536D-03 -0.478701D-04  0.181108D-03  0.151679D-01
     26  0.755408D-03  0.170523D-03 -0.860337D-04 -0.919954D-04  0.133585D-01
     27 -0.893847D-03 -0.332095D-03  0.362088D-04  0.299804D-03 -0.538002D-02
     28  0.308495D-03  0.134964D-03 -0.195481D-05  0.267008D-04 -0.718943D-02
     29 -0.856390D-03 -0.440670D-03  0.237791D-04  0.209248D-04 -0.600912D-02
     30  0.345952D-03  0.263897D-04 -0.143845D-04 -0.252179D-03 -0.781854D-02
     31  0.901418D-02 -0.112054D-01  0.115475D-01  0.220461D-03 -0.219840D-03
     32 -0.919127D-02  0.124166D-01  0.295677D-03 -0.121276D-01 -0.213665D-03
     33 -0.132935D-02  0.281441D-03 -0.108954D-01  0.119174D-01 -0.512948D-03
     34  0.102530D-01 -0.115663D-01  0.106425D-01  0.135803D-04  0.933593D-04
     35 -0.795249D-02  0.120557D-01 -0.609324D-03 -0.123345D-01  0.995343D-04
     36 -0.905631D-04 -0.794460D-04 -0.118004D-01  0.117106D-01 -0.199749D-03
               26            27            28            29            30 
     26  0.146626D-01
     27 -0.717865D-02  0.149478D-01
     28 -0.587449D-02  0.131492D-01  0.144641D-01
     29 -0.746226D-02 -0.591473D-02 -0.736787D-02  0.142350D-01
     30 -0.615810D-02 -0.771337D-02 -0.605292D-02  0.127818D-01  0.144423D-01
     31  0.151062D-03 -0.211674D-03  0.159228D-03 -0.452870D-03 -0.819683D-04
     32 -0.117203D-03 -0.635146D-04  0.329474D-04 -0.211674D-03 -0.115212D-03
     33 -0.199747D-03 -0.213664D-03  0.995367D-04 -0.219839D-03  0.933612D-04
     34  0.407099D-03 -0.115215D-03  0.198525D-03 -0.819701D-04  0.231769D-03
     35  0.138834D-03  0.329445D-04  0.722438D-04  0.159226D-03  0.198526D-03
     36  0.562891D-04 -0.117205D-03  0.138833D-03  0.151061D-03  0.407099D-03
               31            32            33            34            35 
     31  0.142350D-01
     32 -0.591473D-02  0.149478D-01
     33 -0.600912D-02 -0.538002D-02  0.151679D-01
     34  0.127818D-01 -0.771337D-02 -0.781854D-02  0.144423D-01
     35 -0.736787D-02  0.131492D-01 -0.718944D-02 -0.605293D-02  0.144641D-01
     36 -0.746227D-02 -0.717866D-02  0.133585D-01 -0.615810D-02 -0.587449D-02
               36 
     36  0.146626D-01
 Leave Link  716 at Sun May 22 09:08:33 2022, MaxMem=   939524096 cpu:         0.1
 (Enter /Local/ce_dana/g09/l103.exe)

 GradGradGradGradGradGradGradGradGradGradGradGradGradGradGradGradGradGrad
 Berny optimization.
 Red2BG is reusing G-inverse.
 Internal  Forces:  Max     0.013686782 RMS     0.004594072
 Search for a local minimum.
 Step number   1 out of a maximum of   46
 All quantities printed in internal units (Hartrees-Bohrs-Radians)
 RMS Force = .45941D-02 SwitMx=.10000D-02 MixMth= 1
 Mixed Optimization -- RFO/linear search
 Second derivative matrix not updated -- analytic derivatives used.
 ITU=  0
     Eigenvalues ---    0.00060   0.00093   0.00497   0.06920   0.06996
     Eigenvalues ---    0.07023   0.07045   0.12553   0.14592   0.14974
     Eigenvalues ---    0.15501   0.17400   0.17688   0.18714   0.22291
     Eigenvalues ---    0.33881   0.34097   0.34636   0.34961   0.35003
     Eigenvalues ---    0.35189   0.36634   0.36726   0.37660
 RFO step:  Lambda=-2.47933693D-03 EMin= 5.96813739D-04
 Linear search not attempted -- first point.
 Iteration  1 RMS(Cart)=  0.02690106 RMS(Int)=  0.00048060
 Iteration  2 RMS(Cart)=  0.00058699 RMS(Int)=  0.00015123
 Iteration  3 RMS(Cart)=  0.00000020 RMS(Int)=  0.00015123
 ITry= 1 IFail=0 DXMaxC= 6.06D-02 DCOld= 1.00D+10 DXMaxT= 3.00D-01 DXLimC= 3.00D+00 Rises=F
 Variable       Old X    -DE/DX   Delta X   Delta X   Delta X     New X
                                 (Linear)    (Quad)   (Total)
    R1        2.81083   0.01369   0.00000   0.03561   0.03561   2.84643
    R2        2.06708  -0.00572   0.00000  -0.01496  -0.01496   2.05212
    R3        2.06744  -0.00642   0.00000  -0.01984  -0.01984   2.04761
    R4        2.06669  -0.00239   0.00000  -0.00624  -0.00624   2.06045
    R5        2.81083   0.01369   0.00000   0.03561   0.03561   2.84643
    R6        2.04982  -0.00726   0.00000  -0.01946  -0.01946   2.03036
    R7        2.06669  -0.00239   0.00000  -0.00624  -0.00624   2.06045
    R8        2.06744  -0.00642   0.00000  -0.01983  -0.01983   2.04761
    R9        2.06708  -0.00572   0.00000  -0.01496  -0.01496   2.05212
    A1        1.93741  -0.00005   0.00000  -0.00417  -0.00423   1.93318
    A2        1.92007   0.00505   0.00000   0.02499   0.02479   1.94486
    A3        1.92716   0.00407   0.00000   0.01396   0.01383   1.94099
    A4        1.88469  -0.00150   0.00000   0.00488   0.00477   1.88946
    A5        1.90248  -0.00400   0.00000  -0.02939  -0.02939   1.87309
    A6        1.89090  -0.00386   0.00000  -0.01110  -0.01136   1.87954
    A7        2.09045   0.00267   0.00000  -0.00217  -0.00256   2.08789
    A8        2.08101  -0.00136   0.00000  -0.00493  -0.00533   2.07567
    A9        2.08101  -0.00136   0.00000  -0.00493  -0.00533   2.07567
   A10        1.92716   0.00407   0.00000   0.01396   0.01383   1.94099
   A11        1.92007   0.00505   0.00000   0.02499   0.02479   1.94486
   A12        1.93741  -0.00005   0.00000  -0.00417  -0.00423   1.93318
   A13        1.89090  -0.00386   0.00000  -0.01110  -0.01136   1.87954
   A14        1.90248  -0.00400   0.00000  -0.02940  -0.02939   1.87309
   A15        1.88469  -0.00150   0.00000   0.00488   0.00477   1.88946
    D1        0.81162  -0.00093   0.00000   0.02360   0.02353   0.83515
    D2       -2.59563  -0.00136   0.00000  -0.02810  -0.02813  -2.62376
    D3        2.89662   0.00043   0.00000   0.04318   0.04310   2.93971
    D4       -0.51063   0.00001   0.00000  -0.00852  -0.00857  -0.51920
    D5       -1.30034   0.00142   0.00000   0.05406   0.05415  -1.24619
    D6        1.57560   0.00099   0.00000   0.00236   0.00248   1.57808
    D7        1.30034  -0.00142   0.00000  -0.05406  -0.05415   1.24619
    D8       -2.89662  -0.00043   0.00000  -0.04318  -0.04310  -2.93972
    D9       -0.81162   0.00093   0.00000  -0.02360  -0.02353  -0.83516
   D10       -1.57560  -0.00099   0.00000  -0.00236  -0.00248  -1.57808
   D11        0.51063  -0.00001   0.00000   0.00852   0.00857   0.51920
   D12        2.59563   0.00136   0.00000   0.02810   0.02813   2.62376
         Item               Value     Threshold  Converged?
 Maximum Force            0.013687     0.000450     NO 
 RMS     Force            0.004594     0.000300     NO 
 Maximum Displacement     0.060599     0.001800     NO 
 RMS     Displacement     0.026622     0.001200     NO 
 Predicted change in Energy=-1.264952D-03
 Lowest energy point so far.  Saving SCF results.
 GradGradGradGradGradGradGradGradGradGradGradGradGradGradGradGradGradGrad

 Leave Link  103 at Sun May 22 09:08:33 2022, MaxMem=   939524096 cpu:         0.0
 (Enter /Local/ce_dana/g09/l202.exe)
                          Input orientation:                          
 ---------------------------------------------------------------------
 Center     Atomic      Atomic             Coordinates (Angstroms)
 Number     Number       Type             X           Y           Z
 ---------------------------------------------------------------------
      1          6           0        1.306789    0.152365    0.328376
      2          6           0       -0.037671   -0.168425    0.927013
      3          6           0       -1.277838    0.468329    0.356598
      4          1           0        1.426545    1.224388    0.203151
      5          1           0        2.114852   -0.208774    0.953427
      6          1           0        1.419572   -0.303976   -0.655432
      7          1           0       -0.138321   -1.046347    1.538159
      8          1           0       -1.518356    0.055180   -0.623353
      9          1           0       -2.135456    0.310815    0.999837
     10          1           0       -1.138520    1.537961    0.231161
 ---------------------------------------------------------------------
                    Distance matrix (angstroms):
                    1          2          3          4          5
     1  C    0.000000
     2  C    1.506268   0.000000
     3  C    2.604021   1.506268   0.000000
     4  H    1.085936   2.146586   2.812270   0.000000
     5  H    1.083548   2.153063   3.510700   1.758019   0.000000
     6  H    1.090342   2.155473   2.982730   1.753029   1.755251
     7  H    2.233568   1.074419   2.233568   3.063868   2.473909
     8  H    2.982730   2.155473   1.090342   3.274538   3.969396
     9  H    3.510700   2.153063   1.083548   3.762603   4.282201
    10  H    2.812270   2.146586   1.085936   2.584313   3.762603
                    6          7          8          9         10
     6  H    0.000000
     7  H    2.791055   0.000000
     8  H    2.959974   2.791055   0.000000
     9  H    3.969397   2.473909   1.755251   0.000000
    10  H    3.274541   3.063868   1.753029   1.758019   0.000000
 Stoichiometry    C3H7(2)
 Framework group  C1[X(C3H7)]
 Deg. of freedom    24
 Full point group                 C1      NOp   1
 RotChk:  IX=0 Diff= 3.53D-02
 Largest Abelian subgroup         C1      NOp   1
 Largest concise Abelian subgroup C1      NOp   1
                         Standard orientation:                         
 ---------------------------------------------------------------------
 Center     Atomic      Atomic             Coordinates (Angstroms)
 Number     Number       Type             X           Y           Z
 ---------------------------------------------------------------------
      1          6           0        1.302010   -0.205207    0.006042
      2          6           0        0.000000    0.549107   -0.061947
      3          6           0       -1.302010   -0.205207    0.006042
      4          1           0        1.292156   -1.052198   -0.673491
      5          1           0        2.141100    0.429054   -0.254184
      6          1           0        1.479987   -0.595365    1.008512
      7          1           0        0.000000    1.604853    0.137499
      8          1           0       -1.479986   -0.595367    1.008512
      9          1           0       -2.141101    0.429055   -0.254182
     10          1           0       -1.292157   -1.052197   -0.673492
 ---------------------------------------------------------------------
 Rotational constants (GHZ):     36.9310927      8.3041154      7.4060929
 Leave Link  202 at Sun May 22 09:08:33 2022, MaxMem=   939524096 cpu:         0.0
 (Enter /Local/ce_dana/g09/l301.exe)
 Standard basis: 3-21G (6D, 7F)
 Ernie: Thresh=  0.10000D-02 Tol=  0.10000D-05 Strict=F.
 There are    41 symmetry adapted cartesian basis functions of A   symmetry.
 There are    41 symmetry adapted basis functions of A   symmetry.
    41 basis functions,    66 primitive gaussians,    41 cartesian basis functions
    13 alpha electrons       12 beta electrons
       nuclear repulsion energy        75.3296082854 Hartrees.
 IExCor=    0 DFT=F Ex=HF Corr=None ExCW=0 ScaHFX=  1.000000
 ScaDFX=  1.000000  1.000000  1.000000  1.000000 ScalE2=  1.000000  1.000000
 IRadAn=      0 IRanWt=     -1 IRanGd=            0 ICorTp=0 IEmpDi=  4
 NAtoms=   10 NActive=   10 NUniq=   10 SFac= 1.00D+00 NAtFMM=   60 NAOKFM=F Big=F
 Integral buffers will be    131072 words long.
 Raffenetti 2 integral format.
 Two-electron integral symmetry is turned on.
 Leave Link  301 at Sun May 22 09:08:33 2022, MaxMem=   939524096 cpu:         0.1
 (Enter /Local/ce_dana/g09/l302.exe)
 NPDir=0 NMtPBC=     1 NCelOv=     1 NCel=       1 NClECP=     1 NCelD=      1
         NCelK=      1 NCelE2=     1 NClLst=     1 CellRange=     0.0.
 One-electron integrals computed using PRISM.
 NBasis=    41 RedAO= T EigKep=  1.67D-02  NBF=    41
 NBsUse=    41 1.00D-06 EigRej= -1.00D+00 NBFU=    41
 Leave Link  302 at Sun May 22 09:08:33 2022, MaxMem=   939524096 cpu:         0.6
 (Enter /Local/ce_dana/g09/l303.exe)
 DipDrv:  MaxL=1.
 Leave Link  303 at Sun May 22 09:08:33 2022, MaxMem=   939524096 cpu:         0.1
 (Enter /Local/ce_dana/g09/l401.exe)
 Initial guess from the checkpoint file:  "check.chk"
 B after Tr=    -0.000000    0.000000    0.000000
         Rot=    0.999954   -0.009609    0.000000   -0.000000 Ang=  -1.10 deg.
 Guess basis will be translated and rotated to current coordinates.
 JPrj=2 DoOrth=T DoCkMO=T.
 Initial guess <Sx>= 0.0000 <Sy>= 0.0000 <Sz>= 0.5000 <S**2>= 0.7650 S= 0.5075
 Generating alternative initial guess.
 ExpMin= 1.83D-01 ExpMax= 1.72D+02 ExpMxC= 1.72D+02 IAcc=1 IRadAn=         1 AccDes= 0.00D+00
 Harris functional with IExCor=  205 and IRadAn=       1 diagonalized for initial guess.
[...]
 ! A9    A(3,2,7)              118.8819         -DE/DX =    0.0                 !
 ! A10   A(2,3,8)              111.1795         -DE/DX =    0.0                 !
 ! A11   A(2,3,9)              111.5277         -DE/DX =    0.0                 !
 ! A12   A(2,3,10)             110.7352         -DE/DX =    0.0                 !
 ! A13   A(8,3,9)              107.7172         -DE/DX =    0.0                 !
 ! A14   A(8,3,10)             107.2719         -DE/DX =    0.0                 !
 ! A15   A(9,3,10)             108.2387         -DE/DX =    0.0                 !
 ! D1    D(4,1,2,3)             49.799          -DE/DX =    0.0                 !
 ! D2    D(4,1,2,7)           -149.3127         -DE/DX =    0.0                 !
 ! D3    D(5,1,2,3)            170.4018         -DE/DX =    0.0                 !
 ! D4    D(5,1,2,7)            -28.7099         -DE/DX =    0.0                 !
 ! D5    D(6,1,2,3)            -69.3545         -DE/DX =    0.0                 !
 ! D6    D(6,1,2,7)             91.5339         -DE/DX =    0.0                 !
 ! D7    D(1,2,3,8)             69.3545         -DE/DX =    0.0                 !
 ! D8    D(1,2,3,9)           -170.4018         -DE/DX =    0.0                 !
 ! D9    D(1,2,3,10)           -49.799          -DE/DX =    0.0                 !
 ! D10   D(7,2,3,8)            -91.5339         -DE/DX =    0.0                 !
 ! D11   D(7,2,3,9)             28.7099         -DE/DX =    0.0                 !
 ! D12   D(7,2,3,10)           149.3127         -DE/DX =    0.0                 !
 --------------------------------------------------------------------------------
 Lowest energy point so far.  Saving SCF results.
 GradGradGradGradGradGradGradGradGradGradGradGradGradGradGradGradGradGrad

 Largest change from initial coordinates is atom    5       2.161 Angstoms.
 Leave Link  103 at Sun May 22 09:08:36 2022, MaxMem=   939524096 cpu:         0.0
 (Enter /Local/ce_dana/g09/l202.exe)
                          Input orientation:                          
 ---------------------------------------------------------------------
 Center     Atomic      Atomic             Coordinates (Angstroms)
 Number     Number       Type             X           Y           Z
 ---------------------------------------------------------------------
      1          6           0        1.306654    0.151038    0.327302
      2          6           0       -0.036303   -0.158288    0.938787
      3          6           0       -1.278050    0.467012    0.355525
      4          1           0        1.437940    1.222848    0.209608
      5          1           0        2.118295   -0.224934    0.939142
      6          1           0        1.401710   -0.297327   -0.662041
      7          1           0       -0.136280   -1.031373    1.557437
      8          1           0       -1.499566    0.057347   -0.630361
      9          1           0       -2.142997    0.295999    0.985672
     10          1           0       -1.149808    1.539194    0.237864
 ---------------------------------------------------------------------
                    Distance matrix (angstroms):
                    1          2          3          4          5
     1  C    0.000000
     2  C    1.507690   0.000000
     3  C    2.604099   1.507690   0.000000
     4  H    1.086215   2.147703   2.822974   0.000000
     5  H    1.083727   2.155629   3.514905   1.758174   0.000000
     6  H    1.090352   2.156354   2.966609   1.752717   1.755711
     7  H    2.234589   1.074710   2.234589   3.062079   2.473003
     8  H    2.966609   2.156354   1.090352   3.269997   3.953725
     9  H    3.514905   2.155629   1.083727   3.779475   4.293267
    10  H    2.822974   2.147703   1.086215   2.607166   3.779475
                    6          7          8          9         10
     6  H    0.000000
     7  H    2.798270   0.000000
     8  H    2.923046   2.798270   0.000000
     9  H    3.953725   2.473003   1.755711   0.000000
    10  H    3.269997   3.062079   1.752717   1.758174   0.000000
 Stoichiometry    C3H7(2)
 Framework group  CS[SG(CH),X(C2H6)]
 Deg. of freedom    13
 Full point group                 CS      NOp   2
 RotChk:  IX=0 Diff= 9.36D-16
 Largest Abelian subgroup         CS      NOp   2
 Largest concise Abelian subgroup CS      NOp   2
                         Standard orientation:                         
 ---------------------------------------------------------------------
 Center     Atomic      Atomic             Coordinates (Angstroms)
 Number     Number       Type             X           Y           Z
 ---------------------------------------------------------------------
      1          6           0        0.012918   -0.205187    1.302050
      2          6           0        0.012918    0.554942    0.000000
      3          6           0        0.012918   -0.205187   -1.302050
      4          1           0        0.788814   -0.965349    1.303583
      5          1           0        0.181011    0.452753    2.146634
      6          1           0       -0.938491   -0.713377    1.461523
      7          1           0       -0.295186    1.584541    0.000000
      8          1           0       -0.938491   -0.713377   -1.461523
      9          1           0        0.181011    0.452753   -2.146634
     10          1           0        0.788814   -0.965349   -1.303583
 ---------------------------------------------------------------------
 Rotational constants (GHZ):     36.8226749      8.3033212      7.4022258
 Leave Link  202 at Sun May 22 09:08:36 2022, MaxMem=   939524096 cpu:         0.0
 (Enter /Local/ce_dana/g09/l601.exe)
 Copying SCF densities to generalized density rwf, IOpCl= 1 IROHF=0.

 **********************************************************************

            Population analysis using the SCF density.

 **********************************************************************

 Orbital symmetries:
 Alpha Orbitals:
       Occupied  (A') (A") (A') (A') (A") (A') (A') (A') (A") (A")
                 (A") (A') (A')
       Virtual   (A') (A') (A") (A') (A") (A') (A") (A') (A") (A')
                 (A') (A") (A") (A') (A') (A") (A') (A") (A') (A')
                 (A") (A") (A') (A') (A") (A') (A') (A")
 Beta  Orbitals:
       Occupied  (A") (A') (A') (A') (A") (A') (A') (A') (A") (A")
                 (A") (A')
       Virtual   (A') (A') (A') (A") (A") (A') (A") (A') (A') (A")
                 (A') (A") (A') (A") (A') (A") (A') (A') (A") (A')
                 (A') (A") (A") (A') (A') (A") (A') (A") (A')
 The electronic state is 2-A'.
 Alpha  occ. eigenvalues --  -11.17127 -11.15303 -11.15269  -1.06165  -0.93733
 Alpha  occ. eigenvalues --   -0.79406  -0.62007  -0.60093  -0.56191  -0.53895
 Alpha  occ. eigenvalues --   -0.49077  -0.49030  -0.32945
 Alpha virt. eigenvalues --    0.28090   0.30075   0.32958   0.35329   0.36243
 Alpha virt. eigenvalues --    0.36303   0.37434   0.44996   0.48192   0.86733
 Alpha virt. eigenvalues --    0.93643   0.95794   0.99511   0.99898   1.07168
 Alpha virt. eigenvalues --    1.12579   1.22074   1.25794   1.26442   1.33086
 Alpha virt. eigenvalues --    1.34844   1.37374   1.39825   1.41211   1.44239
 Alpha virt. eigenvalues --    1.79211   2.16076   2.17743
  Beta  occ. eigenvalues --  -11.15659 -11.15625 -11.14568  -1.02097  -0.93794
  Beta  occ. eigenvalues --   -0.73998  -0.60966  -0.56252  -0.55325  -0.52970
  Beta  occ. eigenvalues --   -0.48409  -0.48195
  Beta virt. eigenvalues --    0.17108   0.28362   0.30600   0.33365   0.36828
  Beta virt. eigenvalues --    0.37106   0.37374   0.38467   0.47515   0.49594
  Beta virt. eigenvalues --    0.86738   0.96031   0.98452   1.00228   1.02237
  Beta virt. eigenvalues --    1.14059   1.14418   1.23680   1.26125   1.27878
  Beta virt. eigenvalues --    1.33919   1.35465   1.37789   1.40912   1.41491
  Beta virt. eigenvalues --    1.44675   1.81878   2.17589   2.17900
          Condensed to atoms (all electrons):
               1          2          3          4          5          6
     1  C    5.357308   0.259955  -0.078673   0.377879   0.378442   0.369089
     2  C    0.259955   5.565526   0.259955  -0.049929  -0.040216  -0.053685
     3  C   -0.078673   0.259955   5.357308  -0.000522   0.002709   0.000920
     4  H    0.377879  -0.049929  -0.000522   0.514903  -0.023416  -0.030679
     5  H    0.378442  -0.040216   0.002709  -0.023416   0.502364  -0.026836
     6  H    0.369089  -0.053685   0.000920  -0.030679  -0.026836   0.533813
     7  H   -0.038367   0.391160  -0.038367   0.002223  -0.001926   0.000744
     8  H    0.000920  -0.053685   0.369089  -0.000217  -0.000062   0.001606
     9  H    0.002709  -0.040216   0.378442   0.000001  -0.000050  -0.000062
    10  H   -0.000522  -0.049929   0.377879   0.002485   0.000001  -0.000217
               7          8          9         10
     1  C   -0.038367   0.000920   0.002709  -0.000522
     2  C    0.391160  -0.053685  -0.040216  -0.049929
     3  C   -0.038367   0.369089   0.378442   0.377879
     4  H    0.002223  -0.000217   0.000001   0.002485
     5  H   -0.001926  -0.000062  -0.000050   0.000001
     6  H    0.000744   0.001606  -0.000062  -0.000217
     7  H    0.480215   0.000744  -0.001926   0.002223
     8  H    0.000744   0.533813  -0.026836  -0.030679
     9  H   -0.001926  -0.026836   0.502364  -0.023416
    10  H    0.002223  -0.030679  -0.023416   0.514903
          Atomic-Atomic Spin Densities.
               1          2          3          4          5          6
     1  C   -0.184104  -0.065933   0.003239   0.012566   0.008774   0.014881
     2  C   -0.065933   1.530895  -0.065933  -0.013339  -0.005831  -0.027222
     3  C    0.003239  -0.065933  -0.184104   0.001025   0.000061   0.000332
     4  H    0.012566  -0.013339   0.001025   0.041391   0.001165  -0.011425
     5  H    0.008774  -0.005831   0.000061   0.001165   0.015470  -0.005501
     6  H    0.014881  -0.027222   0.000332  -0.011425  -0.005501   0.098161
     7  H    0.003603  -0.022336   0.003603   0.000083   0.000613  -0.000586
     8  H    0.000332  -0.027222   0.014881  -0.000548  -0.000041   0.001926
     9  H    0.000061  -0.005831   0.008774   0.000033   0.000002  -0.000041
    10  H    0.001025  -0.013339   0.012566   0.001222   0.000033  -0.000548
               7          8          9         10
     1  C    0.003603   0.000332   0.000061   0.001025
     2  C   -0.022336  -0.027222  -0.005831  -0.013339
     3  C    0.003603   0.014881   0.008774   0.012566
     4  H    0.000083  -0.000548   0.000033   0.001222
     5  H    0.000613  -0.000041   0.000002   0.000033
     6  H   -0.000586   0.001926  -0.000041  -0.000548
     7  H   -0.091682  -0.000586   0.000613   0.000083
     8  H   -0.000586   0.098161  -0.005501  -0.011425
     9  H    0.000613  -0.005501   0.015470   0.001165
    10  H    0.000083  -0.011425   0.001165   0.041391
 Mulliken charges and spin densities:
               1          2
     1  C   -0.628740  -0.205556
     2  C   -0.188938   1.283909
     3  C   -0.628740  -0.205556
     4  H    0.207273   0.032174
     5  H    0.208990   0.014746
     6  H    0.205307   0.069977
     7  H    0.203276  -0.106591
     8  H    0.205307   0.069977
     9  H    0.208990   0.014746
    10  H    0.207273   0.032174
 Sum of Mulliken charges =  -0.00000   1.00000
 Mulliken charges and spin densities with hydrogens summed into heavy atoms:
               1          2
     1  C   -0.007169  -0.088659
     2  C    0.014339   1.177318
     3  C   -0.007169  -0.088659
 Electronic spatial extent (au):  <R**2>=            220.4938
 Charge=             -0.0000 electrons
 Dipole moment (field-independent basis, Debye):
    X=             -0.2158    Y=             -0.0942    Z=             -0.0000  Tot=              0.2355
 Quadrupole moment (field-independent basis, Debye-Ang):
   XX=            -21.7697   YY=            -20.7634   ZZ=            -20.8534
   XY=             -0.4315   XZ=             -0.0000   YZ=              0.0000
 Traceless Quadrupole moment (field-independent basis, Debye-Ang):
   XX=             -0.6409   YY=              0.3655   ZZ=              0.2754
   XY=             -0.4315   XZ=             -0.0000   YZ=              0.0000
 Octapole moment (field-independent basis, Debye-Ang**2):
  XXX=             -0.6945  YYY=              1.0429  ZZZ=             -0.0000  XYY=             -0.2592
  XXY=             -1.6610  XXZ=             -0.0000  XZZ=              0.2143  YZZ=              1.1404
  YYZ=             -0.0000  XYZ=              0.0000
 Hexadecapole moment (field-independent basis, Debye-Ang**3):
 XXXX=            -35.3853 YYYY=            -57.0362 ZZZZ=           -204.4986 XXXY=              0.9914
 XXXZ=             -0.0000 YYYX=             -0.8503 YYYZ=              0.0000 ZZZX=             -0.0000
 ZZZY=              0.0000 XXYY=            -15.1295 XXZZ=            -40.6754 YYZZ=            -43.4432
 XXYZ=              0.0000 YYXZ=             -0.0000 ZZXY=              1.0272
 N-N= 7.529516366481D+01 E-N=-4.220564002719D+02  KE= 1.167749066471D+02
 Symmetry A'   KE= 7.587227689083D+01
 Symmetry A"   KE= 4.090262975628D+01
                          Isotropic Fermi Contact Couplings
        Atom                 a.u.       MegaHertz       Gauss      10(-4) cm-1
     1  C(13)             -0.05716     -64.25915     -22.92926     -21.43454
     2  C(13)              0.26039     292.73097     104.45369      97.64454
     3  C(13)             -0.05716     -64.25915     -22.92926     -21.43454
     4  H(1)               0.01144      51.13017      18.24452      17.05519
     5  H(1)               0.00485      21.68521       7.73782       7.23341
     6  H(1)               0.02509     112.13759      40.01348      37.40507
     7  H(1)              -0.02634    -117.74176     -42.01319     -39.27442
     8  H(1)               0.02509     112.13759      40.01348      37.40507
     9  H(1)               0.00485      21.68521       7.73782       7.23341
    10  H(1)               0.01144      51.13017      18.24452      17.05519
 --------------------------------------------------------
       Center         ----  Spin Dipole Couplings  ----
                      3XX-RR        3YY-RR        3ZZ-RR
 --------------------------------------------------------
     1   Atom       -0.002877      0.000092      0.002785
     2   Atom        0.909929     -0.423557     -0.486371
     3   Atom       -0.002877      0.000092      0.002785
     4   Atom       -0.009745      0.004463      0.005282
     5   Atom       -0.004810     -0.012591      0.017401
     6   Atom       -0.012417      0.002401      0.010016
     7   Atom       -0.003411      0.084317     -0.080905
     8   Atom       -0.012417      0.002401      0.010016
     9   Atom       -0.004810     -0.012591      0.017401
    10   Atom       -0.009745      0.004463      0.005282
 --------------------------------------------------------
                        XY            XZ            YZ
 --------------------------------------------------------
     1   Atom       -0.000511     -0.001723      0.001917
     2   Atom        0.275361      0.000000     -0.000000
     3   Atom       -0.000511      0.001723     -0.001917
     4   Atom        0.001207      0.006292     -0.015315
     5   Atom       -0.000735     -0.000965     -0.008142
     6   Atom       -0.000193     -0.006033     -0.011625
     7   Atom       -0.034891     -0.000000      0.000000
     8   Atom       -0.000193      0.006033      0.011625
     9   Atom       -0.000735      0.000965      0.008142
    10   Atom        0.001207     -0.006292      0.015315
 --------------------------------------------------------


 ---------------------------------------------------------------------------------
              Anisotropic Spin Dipole Couplings in Principal Axis System
 ---------------------------------------------------------------------------------

       Atom             a.u.   MegaHertz   Gauss  10(-4) cm-1        Axes

              Baa    -0.0034    -0.451    -0.161    -0.150  0.9621 -0.0091  0.2727
     1 C(13)  Bbb    -0.0009    -0.116    -0.041    -0.039  0.1260  0.9013 -0.4144
              Bcc     0.0042     0.566     0.202     0.189 -0.2420  0.4331  0.8683
 
              Baa    -0.4864   -65.266   -23.289   -21.771 -0.0000  0.0000  1.0000
     2 C(13)  Bbb    -0.4782   -64.167   -22.896   -21.404 -0.1946  0.9809 -0.0000
              Bcc     0.9646   129.434    46.185    43.174  0.9809  0.1946  0.0000
 
              Baa    -0.0034    -0.451    -0.161    -0.150  0.9621 -0.0091 -0.2727
     3 C(13)  Bbb    -0.0009    -0.116    -0.041    -0.039  0.1260  0.9013  0.4144
              Bcc     0.0042     0.566     0.202     0.189  0.2420 -0.4331  0.8683
 
              Baa    -0.0155    -8.292    -2.959    -2.766  0.6943 -0.4634 -0.5506
     4 H(1)   Bbb    -0.0051    -2.725    -0.972    -0.909  0.7091  0.5715  0.4130
              Bcc     0.0206    11.017     3.931     3.675  0.1233 -0.6772  0.7254
 
              Baa    -0.0147    -7.870    -2.808    -2.625  0.0953  0.9643  0.2471
     5 H(1)   Bbb    -0.0047    -2.530    -0.903    -0.844  0.9950 -0.1001  0.0066
              Bcc     0.0195    10.400     3.711     3.469 -0.0311 -0.2452  0.9690
 
              Baa    -0.0147    -7.834    -2.795    -2.613  0.9117  0.2381  0.3348
     6 H(1)   Bbb    -0.0045    -2.396    -0.855    -0.799 -0.3817  0.7922  0.4761
              Bcc     0.0192    10.231     3.650     3.413 -0.1519 -0.5618  0.8132
 
              Baa    -0.0809   -43.167   -15.403   -14.399 -0.0000 -0.0000  1.0000
     7 H(1)   Bbb    -0.0156    -8.321    -2.969    -2.776  0.9441  0.3297  0.0000
              Bcc     0.0965    51.488    18.372    17.175 -0.3297  0.9441  0.0000
 
              Baa    -0.0147    -7.834    -2.795    -2.613  0.9117  0.2381 -0.3348
     8 H(1)   Bbb    -0.0045    -2.396    -0.855    -0.799 -0.3817  0.7922 -0.4761
              Bcc     0.0192    10.231     3.650     3.413  0.1519  0.5618  0.8132
 
              Baa    -0.0147    -7.870    -2.808    -2.625  0.0953  0.9643 -0.2471
     9 H(1)   Bbb    -0.0047    -2.530    -0.903    -0.844  0.9950 -0.1001 -0.0066
              Bcc     0.0195    10.400     3.711     3.469  0.0311  0.2452  0.9690
 
              Baa    -0.0155    -8.292    -2.959    -2.766  0.6943 -0.4634  0.5506
    10 H(1)   Bbb    -0.0051    -2.725    -0.972    -0.909  0.7091  0.5715 -0.4130
              Bcc     0.0206    11.017     3.931     3.675 -0.1233  0.6772  0.7254
 

 ---------------------------------------------------------------------------------

 No NMR shielding tensors so no spin-rotation constants.
 Leave Link  601 at Sun May 22 09:08:36 2022, MaxMem=   939524096 cpu:         1.8
 (Enter /Local/ce_dana/g09/l9999.exe)

 Test job not archived.
 1\1\GINC-TECH-WN190\FOpt\UHF\3-21G\C3H7(2)\ALONGD\22-May-2022\0\\#P op
 t=(calcfc) guess=mix uhf/3-21g IOp(2/9=2000) scf=xqc\\iC3H7\\0,2\C,1.3
 066543126,0.1510384371,0.3273021923\C,-0.036303004,-0.1582876719,0.938
 7869134\C,-1.2780502555,0.4670122534,0.3555251136\H,1.4379398887,1.222
 8480754,0.2096079708\H,2.1182949849,-0.2249335342,0.9391419646\H,1.401
 7096759,-0.2973272664,-0.662040757\H,-0.1362804025,-1.0313731255,1.557
 4367043\H,-1.4995657932,0.0573465689,-0.6303611328\H,-2.1429970279,0.2
 959989996,0.9856718894\H,-1.1498080249,1.5391939333,0.237864123\\Versi
 on=ES64L-G09RevD.01\State=2-A'\HF=-116.9860891\S2=0.764601\S2-1=0.\S2A
 =0.750171\RMSD=3.801e-09\RMSF=3.795e-06\Dipole=-0.006194,-0.0433764,-0
 .0816351\Quadrupole=0.2023228,0.1237288,-0.3260517,-0.0146571,-0.05899
 04,-0.4351362\PG=CS [SG(C1H1),X(C2H6)]\\@


 MY GROUP MEETINGS AREN'T VERY STRUCTURED.
     -- PROF. M. S. GORDON, OCT. 5, 1984
 Job cpu time:       0 days  0 hours  0 minutes 25.5 seconds.
 File lengths (MBytes):  RWF=      8 Int=      0 D2E=      0 Chk=      1 Scr=      1
 Normal termination of Gaussian 09 at Sun May 22 09:08:36 2022.
