 Entering Gaussian System, Link 0=/Local/ce_dana/g09/g09
 Initial command:
 /Local/ce_dana/g09/l1.exe "/storage/ce_dana/alongd/scratch/g09/Gau-8305.inp" -scrdir="/storage/ce_dana/alongd/scratch/g09/"
 Entering Link 1 = /Local/ce_dana/g09/l1.exe PID=      8306.
  
 Copyright (c) 1988,1990,1992,1993,1995,1998,2003,2009,2013,
            Gaussian, Inc.  All Rights Reserved.
  
 This is part of the Gaussian(R) 09 program.  It is based on
 the Gaussian(R) 03 system (copyright 2003, Gaussian, Inc.),
 the Gaussian(R) 98 system (copyright 1998, Gaussian, Inc.),
 the Gaussian(R) 94 system (copyright 1995, Gaussian, Inc.),
 the Gaussian 92(TM) system (copyright 1992, Gaussian, Inc.),
 the Gaussian 90(TM) system (copyright 1990, Gaussian, Inc.),
 the Gaussian 88(TM) system (copyright 1988, Gaussian, Inc.),
 the Gaussian 86(TM) system (copyright 1986, Carnegie Mellon
 University), and the Gaussian 82(TM) system (copyright 1983,
 Carnegie Mellon University). Gaussian is a federally registered
 trademark of Gaussian, Inc.
  
 This software contains proprietary and confidential information,
 including trade secrets, belonging to Gaussian, Inc.
  
 This software is provided under written license and may be
 used, copied, transmitted, or stored only in accord with that
 written license.
  
 The following legend is applicable only to US Government
 contracts under FAR:
  
                    RESTRICTED RIGHTS LEGEND
  
 Use, reproduction and disclosure by the US Government is
 subject to restrictions as set forth in subparagraphs (a)
 and (c) of the Commercial Computer Software - Restricted
 Rights clause in FAR 52.227-19.
  
 Gaussian, Inc.
 340 Quinnipiac St., Bldg. 40, Wallingford CT 06492
  
  
 ---------------------------------------------------------------
 Warning -- This program may not be used in any manner that
 competes with the business of Gaussian, Inc. or will provide
 assistance to any competitor of Gaussian, Inc.  The licensee
 of this program is prohibited from giving any competitor of
 Gaussian, Inc. access to this program.  By using this program,
 the user acknowledges that Gaussian, Inc. is engaged in the
 business of creating and licensing software in the field of
 computational chemistry and represents and warrants to the
 licensee that it is not a competitor of Gaussian, Inc. and that
 it will not use this program in any manner prohibited above.
 ---------------------------------------------------------------
  

 Cite this work as:
 Gaussian 09, Revision D.01,
 M. J. Frisch, G. W. Trucks, H. B. Schlegel, G. E. Scuseria, 
 M. A. Robb, J. R. Cheeseman, G. Scalmani, V. Barone, B. Mennucci, 
 G. A. Petersson, H. Nakatsuji, M. Caricato, X. Li, H. P. Hratchian, 
 A. F. Izmaylov, J. Bloino, G. Zheng, J. L. Sonnenberg, M. Hada, 
 M. Ehara, K. Toyota, R. Fukuda, J. Hasegawa, M. Ishida, T. Nakajima, 
 Y. Honda, O. Kitao, H. Nakai, T. Vreven, J. A. Montgomery, Jr., 
 J. E. Peralta, F. Ogliaro, M. Bearpark, J. J. Heyd, E. Brothers, 
 K. N. Kudin, V. N. Staroverov, T. Keith, R. Kobayashi, J. Normand, 
 K. Raghavachari, A. Rendell, J. C. Burant, S. S. Iyengar, J. Tomasi, 
 M. Cossi, N. Rega, J. M. Millam, M. Klene, J. E. Knox, J. B. Cross, 
 V. Bakken, C. Adamo, J. Jaramillo, R. Gomperts, R. E. Stratmann, 
 O. Yazyev, A. J. Austin, R. Cammi, C. Pomelli, J. W. Ochterski, 
 R. L. Martin, K. Morokuma, V. G. Zakrzewski, G. A. Voth, 
 P. Salvador, J. J. Dannenberg, S. Dapprich, A. D. Daniels, 
 O. Farkas, J. B. Foresman, J. V. Ortiz, J. Cioslowski, 
 and D. J. Fox, Gaussian, Inc., Wallingford CT, 2013.
 
 ******************************************
 Gaussian 09:  ES64L-G09RevD.01 24-Apr-2013
                22-May-2022 
 ******************************************
 %chk=check.chk
 %mem=7168mb
 %NProcShared=10
 Will use up to   10 processors via shared memory.
 ---------------------------------------------------------
 #P opt=(calcfc) guess=mix uhf/3-21g IOp(2/9=2000) scf=xqc
 ---------------------------------------------------------
 1/10=4,18=20,19=15,38=1/1,3;
 2/9=2000,12=2,17=6,18=5,40=1/2;
 3/5=5,11=2,16=1,25=1,30=1,71=2,116=2,140=1/1,2,3;
 4/13=-1/1;
 5/5=2,8=3,13=1,38=5/2,8;
 8/6=4,10=90,11=11/1;
 11/6=1,8=1,9=11,15=111,16=1/1,2,10;
 10/6=1,13=1/2;
 6/7=2,8=2,9=2,10=2,28=1/1;
 7/10=1,18=20,25=1/1,2,3,16;
 1/10=4,18=20,19=15/3(2);
 2/9=2000/2;
 99//99;
 2/9=2000/2;
 3/5=5,11=2,16=1,25=1,30=1,71=1,116=2/1,2,3;
 4/5=5,16=3,69=1/1;
 5/5=2,8=3,13=1,38=5/2,8;
 7//1,2,3,16;
 1/18=20,19=15/3(-5);
 2/9=2000/2;
 6/7=2,8=2,9=2,10=2,19=2,28=1/1;
 99/9=1/99;
 Leave Link    1 at Sun May 22 09:08:30 2022, MaxMem=   939524096 cpu:         0.0
 (Enter /Local/ce_dana/g09/l101.exe)
 -----
 nC3H7
 -----
 Symbolic Z-matrix:
 Charge =  0 Multiplicity = 2
 C                     1.37804   0.27792  -0.19512 
 C                     0.17557  -0.34036   0.43265 
 C                    -0.83187   0.70418   0.88325 
 H                     2.32472  -0.2503   -0.17789 
 H                     1.28332   1.14668  -0.83696 
 H                    -0.29365  -1.02043  -0.28597 
 H                     0.48922  -0.93757   1.29561 
 H                    -1.19282   1.29832   0.03682 
 H                    -1.69637   0.21982   1.3485 
 H                    -0.39179   1.38839   1.61666 
 
 NAtoms=     10 NQM=       10 NQMF=       0 NMMI=      0 NMMIF=      0
                NMic=       0 NMicF=      0.
                    Isotopes and Nuclear Properties:
 (Nuclear quadrupole moments (NQMom) in fm**2, nuclear magnetic moments (NMagM)
  in nuclear magnetons)

  Atom         1           2           3           4           5           6           7           8           9          10
 IAtWgt=          12          12          12           1           1           1           1           1           1           1
 AtmWgt=  12.0000000  12.0000000  12.0000000   1.0078250   1.0078250   1.0078250   1.0078250   1.0078250   1.0078250   1.0078250
 NucSpn=           0           0           0           1           1           1           1           1           1           1
 AtZEff=   0.0000000   0.0000000   0.0000000   0.0000000   0.0000000   0.0000000   0.0000000   0.0000000   0.0000000   0.0000000
 NQMom=    0.0000000   0.0000000   0.0000000   0.0000000   0.0000000   0.0000000   0.0000000   0.0000000   0.0000000   0.0000000
 NMagM=    0.0000000   0.0000000   0.0000000   2.7928460   2.7928460   2.7928460   2.7928460   2.7928460   2.7928460   2.7928460
 AtZNuc=   6.0000000   6.0000000   6.0000000   1.0000000   1.0000000   1.0000000   1.0000000   1.0000000   1.0000000   1.0000000
 Leave Link  101 at Sun May 22 09:08:30 2022, MaxMem=   939524096 cpu:         0.3
 (Enter /Local/ce_dana/g09/l103.exe)

 GradGradGradGradGradGradGradGradGradGradGradGradGradGradGradGradGradGrad
 Berny optimization.
 Initialization pass.
                           ----------------------------
                           !    Initial Parameters    !
                           ! (Angstroms and Degrees)  !
 --------------------------                            --------------------------
 ! Name  Definition              Value          Derivative Info.                !
 --------------------------------------------------------------------------------
 ! R1    R(1,2)                  1.4907         calculate D2E/DX2 analytically  !
 ! R2    R(1,4)                  1.0842         calculate D2E/DX2 analytically  !
 ! R3    R(1,5)                  1.0843         calculate D2E/DX2 analytically  !
 ! R4    R(2,3)                  1.5196         calculate D2E/DX2 analytically  !
 ! R5    R(2,6)                  1.095          calculate D2E/DX2 analytically  !
 ! R6    R(2,7)                  1.0953         calculate D2E/DX2 analytically  !
 ! R7    R(3,8)                  1.0953         calculate D2E/DX2 analytically  !
 ! R8    R(3,9)                  1.0947         calculate D2E/DX2 analytically  !
 ! R9    R(3,10)                 1.0953         calculate D2E/DX2 analytically  !
 ! A1    A(2,1,4)              119.7065         calculate D2E/DX2 analytically  !
 ! A2    A(2,1,5)              120.7384         calculate D2E/DX2 analytically  !
 ! A3    A(4,1,5)              118.4265         calculate D2E/DX2 analytically  !
 ! A4    A(1,2,3)              111.997          calculate D2E/DX2 analytically  !
 ! A5    A(1,2,6)              109.0787         calculate D2E/DX2 analytically  !
 ! A6    A(1,2,7)              109.0824         calculate D2E/DX2 analytically  !
 ! A7    A(3,2,6)              109.7197         calculate D2E/DX2 analytically  !
 ! A8    A(3,2,7)              109.3307         calculate D2E/DX2 analytically  !
 ! A9    A(6,2,7)              107.5252         calculate D2E/DX2 analytically  !
 ! A10   A(2,3,8)              111.2353         calculate D2E/DX2 analytically  !
 ! A11   A(2,3,9)              110.2088         calculate D2E/DX2 analytically  !
 ! A12   A(2,3,10)             111.1968         calculate D2E/DX2 analytically  !
 ! A13   A(8,3,9)              107.9504         calculate D2E/DX2 analytically  !
 ! A14   A(8,3,10)             108.1195         calculate D2E/DX2 analytically  !
 ! A15   A(9,3,10)             108.0047         calculate D2E/DX2 analytically  !
 ! D1    D(4,1,2,3)            153.9376         calculate D2E/DX2 analytically  !
 ! D2    D(4,1,2,6)            -84.409          calculate D2E/DX2 analytically  !
 ! D3    D(4,1,2,7)             32.7719         calculate D2E/DX2 analytically  !
 ! D4    D(5,1,2,3)            -38.3956         calculate D2E/DX2 analytically  !
 ! D5    D(5,1,2,6)             83.2577         calculate D2E/DX2 analytically  !
 ! D6    D(5,1,2,7)           -159.5613         calculate D2E/DX2 analytically  !
 ! D7    D(1,2,3,8)             60.9049         calculate D2E/DX2 analytically  !
 ! D8    D(1,2,3,9)           -179.4007         calculate D2E/DX2 analytically  !
 ! D9    D(1,2,3,10)           -59.6633         calculate D2E/DX2 analytically  !
 ! D10   D(6,2,3,8)            -60.3797         calculate D2E/DX2 analytically  !
 ! D11   D(6,2,3,9)             59.3147         calculate D2E/DX2 analytically  !
 ! D12   D(6,2,3,10)           179.0521         calculate D2E/DX2 analytically  !
 ! D13   D(7,2,3,8)           -178.0727         calculate D2E/DX2 analytically  !
 ! D14   D(7,2,3,9)            -58.3784         calculate D2E/DX2 analytically  !
 ! D15   D(7,2,3,10)            61.359          calculate D2E/DX2 analytically  !
 --------------------------------------------------------------------------------
 Trust Radius=3.00D-01 FncErr=1.00D-07 GrdErr=1.00D-07
 Number of steps in this run=     49 maximum allowed number of steps=    100.
 GradGradGradGradGradGradGradGradGradGradGradGradGradGradGradGradGradGrad

 Leave Link  103 at Sun May 22 09:08:30 2022, MaxMem=   939524096 cpu:         0.0
 (Enter /Local/ce_dana/g09/l202.exe)
                          Input orientation:                          
 ---------------------------------------------------------------------
 Center     Atomic      Atomic             Coordinates (Angstroms)
 Number     Number       Type             X           Y           Z
 ---------------------------------------------------------------------
      1          6           0        1.378044    0.277917   -0.195118
      2          6           0        0.175572   -0.340363    0.432650
      3          6           0       -0.831872    0.704181    0.883246
      4          1           0        2.324721   -0.250298   -0.177894
      5          1           0        1.283325    1.146676   -0.836956
      6          1           0       -0.293653   -1.020428   -0.285967
      7          1           0        0.489223   -0.937570    1.295605
      8          1           0       -1.192818    1.298324    0.036817
      9          1           0       -1.696367    0.219824    1.348502
     10          1           0       -0.391787    1.388387    1.616661
 ---------------------------------------------------------------------
                    Distance matrix (angstroms):
                    1          2          3          4          5
     1  C    0.000000
     2  C    1.490739   0.000000
     3  C    2.495655   1.519556   0.000000
     4  H    1.084208   2.236005   3.464264   0.000000
     5  H    1.084283   2.247288   2.762056   1.862903   0.000000
     6  H    2.118613   1.095021   2.151979   2.731421   2.736200
     7  H    2.118884   1.095320   2.147248   2.452060   3.085854
     8  H    2.775672   2.171283   1.095322   3.849339   2.630163
     9  H    3.440660   2.157951   1.094722   4.326668   3.809704
    10  H    2.765500   2.170796   1.095313   3.644878   2.980715
                    6          7          8          9         10
     6  H    0.000000
     7  H    1.766673   0.000000
     8  H    2.507847   3.068066   0.000000
     9  H    2.485423   2.473694   1.771226   0.000000
    10  H    3.071159   2.507854   1.773603   1.771829   0.000000
 Stoichiometry    C3H7(2)
 Framework group  C1[X(C3H7)]
 Deg. of freedom    24
 Full point group                 C1      NOp   1
 Largest Abelian subgroup         C1      NOp   1
 Largest concise Abelian subgroup C1      NOp   1
                         Standard orientation:                         
 ---------------------------------------------------------------------
 Center     Atomic      Atomic             Coordinates (Angstroms)
 Number     Number       Type             X           Y           Z
 ---------------------------------------------------------------------
      1          6           0        1.286961   -0.295602   -0.039419
      2          6           0        0.071998    0.561334    0.069331
      3          6           0       -1.208250   -0.249007   -0.046278
      4          1           0        2.217181    0.133630   -0.394322
      5          1           0        1.312402   -1.280956    0.412355
      6          1           0        0.090369    1.088238    1.029073
      7          1           0        0.095162    1.317623   -0.722638
      8          1           0       -1.279733   -0.994096    0.753386
      9          1           0       -2.080143    0.408940    0.026698
     10          1           0       -1.259491   -0.773728   -1.006357
 ---------------------------------------------------------------------
 Rotational constants (GHZ):     32.4549177      9.1294965      7.9302941
 Leave Link  202 at Sun May 22 09:08:30 2022, MaxMem=   939524096 cpu:         0.0
 (Enter /Local/ce_dana/g09/l301.exe)
 Standard basis: 3-21G (6D, 7F)
 Ernie: Thresh=  0.10000D-02 Tol=  0.10000D-05 Strict=F.
 There are    41 symmetry adapted cartesian basis functions of A   symmetry.
 There are    41 symmetry adapted basis functions of A   symmetry.
    41 basis functions,    66 primitive gaussians,    41 cartesian basis functions
    13 alpha electrons       12 beta electrons
       nuclear repulsion energy        76.1334061173 Hartrees.
 IExCor=    0 DFT=F Ex=HF Corr=None ExCW=0 ScaHFX=  1.000000
 ScaDFX=  1.000000  1.000000  1.000000  1.000000 ScalE2=  1.000000  1.000000
 IRadAn=      0 IRanWt=     -1 IRanGd=            0 ICorTp=0 IEmpDi=  4
 NAtoms=   10 NActive=   10 NUniq=   10 SFac= 1.00D+00 NAtFMM=   60 NAOKFM=F Big=F
 Integral buffers will be    131072 words long.
 Raffenetti 2 integral format.
 Two-electron integral symmetry is turned on.
 Leave Link  301 at Sun May 22 09:08:30 2022, MaxMem=   939524096 cpu:         0.0
 (Enter /Local/ce_dana/g09/l302.exe)
 NPDir=0 NMtPBC=     1 NCelOv=     1 NCel=       1 NClECP=     1 NCelD=      1
         NCelK=      1 NCelE2=     1 NClLst=     1 CellRange=     0.0.
 One-electron integrals computed using PRISM.
 NBasis=    41 RedAO= T EigKep=  1.48D-02  NBF=    41
 NBsUse=    41 1.00D-06 EigRej= -1.00D+00 NBFU=    41
 Leave Link  302 at Sun May 22 09:08:30 2022, MaxMem=   939524096 cpu:         1.0
 (Enter /Local/ce_dana/g09/l303.exe)
 DipDrv:  MaxL=1.
 Leave Link  303 at Sun May 22 09:08:30 2022, MaxMem=   939524096 cpu:         0.1
 (Enter /Local/ce_dana/g09/l401.exe)
 ExpMin= 1.83D-01 ExpMax= 1.72D+02 ExpMxC= 1.72D+02 IAcc=1 IRadAn=         1 AccDes= 0.00D+00
 Harris functional with IExCor=  205 and IRadAn=       1 diagonalized for initial guess.
 HarFok:  IExCor=  205 AccDes= 0.00D+00 IRadAn=         1 IDoV= 1 UseB2=F ITyADJ=14
 ICtDFT=  3500011 ScaDFX=  1.000000  1.000000  1.000000  1.000000
 FoFCou: FMM=F IPFlag=           0 FMFlag=      100000 FMFlg1=           0
         NFxFlg=           0 DoJE=T BraDBF=F KetDBF=T FulRan=T
         wScrn=  0.000000 ICntrl=     500 IOpCl=  0 I1Cent=   200000004 NGrid=           0
         NMat0=    1 NMatS0=      1 NMatT0=    0 NMatD0=    1 NMtDS0=    0 NMtDT0=    0
 Petite list used in FoFCou.
 Harris En= -117.250459205476    
 JPrj=0 DoOrth=F DoCkMO=T.
 Mixing orbitals, IMix= 1 IMixAn=  0 NRI=1 NE=   13 Coef=  7.07106781D-01  7.07106781D-01
 Mixing orbitals, IMix= 1 IMixAn=  0 NRI=1 NE=   12 Coef= -7.07106781D-01  7.07106781D-01
 Initial guess <Sx>= 0.0000 <Sy>= 0.0000 <Sz>= 0.5000 <S**2>= 1.0000 S= 0.6180
 Leave Link  401 at Sun May 22 09:08:30 2022, MaxMem=   939524096 cpu:         1.3
 (Enter /Local/ce_dana/g09/l502.exe)
 UHF open shell SCF:
 Using DIIS extrapolation, IDIIS=  1040.
 Integral symmetry usage will be decided dynamically.
 Keep R1 and R2 ints in memory in canonical form, NReq=1568839.
 IVT=       11725 IEndB=       11725 NGot=   939524096 MDV=   938770190
 LenX=   938770190 LenY=   938768068
 Requested convergence on RMS density matrix=1.00D-08 within  64 cycles.
 Requested convergence on MAX density matrix=1.00D-06.
 Requested convergence on             energy=1.00D-06.
 No special actions if energy rises.
 FoFCou: FMM=F IPFlag=           0 FMFlag=           0 FMFlg1=           0
         NFxFlg=           0 DoJE=F BraDBF=F KetDBF=F FulRan=T
         wScrn=  0.000000 ICntrl=     600 IOpCl=  0 I1Cent=           0 NGrid=           0
         NMat0=    1 NMatS0=    861 NMatT0=    0 NMatD0=    1 NMtDS0=    0 NMtDT0=    0
 Symmetry not used in FoFCou.

 Cycle   1  Pass 1  IDiag  1:
 E= -116.536598930823    
 DIIS: error= 5.67D-02 at cycle   1 NSaved=   1.
 NSaved= 1 IEnMin= 1 EnMin= -116.536598930823     IErMin= 1 ErrMin= 5.67D-02
 ErrMax= 5.67D-02  0.00D+00 EMaxC= 1.00D-01 BMatC= 6.72D-01 BMatP= 6.72D-01
 IDIUse=3 WtCom= 4.33D-01 WtEn= 5.67D-01
 Coeff-Com:  0.100D+01
 Coeff-En:   0.100D+01
 Coeff:      0.100D+01
 Gap=     0.229 Goal=   None    Shift=    0.000
 Gap=     0.312 Goal=   None    Shift=    0.000
 GapD=    0.229 DampG=1.000 DampE=0.500 DampFc=0.5000 IDamp=-1.
 Damping current iteration by 5.00D-01
 RMSDP=4.73D-02 MaxDP=6.76D-01              OVMax= 4.21D-01

 Cycle   2  Pass 1  IDiag  1:
 E= -116.688005335296     Delta-E=       -0.151406404473 Rises=F Damp=T
 DIIS: error= 4.48D-02 at cycle   2 NSaved=   2.
 NSaved= 2 IEnMin= 2 EnMin= -116.688005335296     IErMin= 2 ErrMin= 4.48D-02
 ErrMax= 4.48D-02  0.00D+00 EMaxC= 1.00D-01 BMatC= 1.71D-01 BMatP= 6.72D-01
 IDIUse=3 WtCom= 5.52D-01 WtEn= 4.48D-01
 Coeff-Com: -0.574D+00 0.157D+01
 Coeff-En:   0.000D+00 0.100D+01
 Coeff:     -0.317D+00 0.132D+01
 Gap=     0.439 Goal=   None    Shift=    0.000
 Gap=     0.469 Goal=   None    Shift=    0.000
 RMSDP=3.69D-02 MaxDP=4.81D-01 DE=-1.51D-01 OVMax= 1.64D-01

 Cycle   3  Pass 1  IDiag  1:
 E= -116.942485516179     Delta-E=       -0.254480180883 Rises=F Damp=F
 DIIS: error= 2.78D-02 at cycle   3 NSaved=   3.
 NSaved= 3 IEnMin= 3 EnMin= -116.942485516179     IErMin= 3 ErrMin= 2.78D-02
 ErrMax= 2.78D-02  0.00D+00 EMaxC= 1.00D-01 BMatC= 2.73D-02 BMatP= 1.71D-01
 IDIUse=3 WtCom= 7.22D-01 WtEn= 2.78D-01
 Coeff-Com:  0.258D+00-0.671D+00 0.141D+01
 Coeff-En:   0.000D+00 0.000D+00 0.100D+01
 Coeff:      0.186D+00-0.484D+00 0.130D+01
 Gap=     0.594 Goal=   None    Shift=    0.000
 Gap=     0.611 Goal=   None    Shift=    0.000
 RMSDP=9.84D-03 MaxDP=1.11D-01 DE=-2.54D-01 OVMax= 1.42D-01

 Cycle   4  Pass 1  IDiag  1:
 E= -116.974798086021     Delta-E=       -0.032312569843 Rises=F Damp=F
 DIIS: error= 1.04D-02 at cycle   4 NSaved=   4.
 NSaved= 4 IEnMin= 4 EnMin= -116.974798086021     IErMin= 4 ErrMin= 1.04D-02
 ErrMax= 1.04D-02  0.00D+00 EMaxC= 1.00D-01 BMatC= 4.79D-03 BMatP= 2.73D-02
 IDIUse=3 WtCom= 8.96D-01 WtEn= 1.04D-01
 Coeff-Com: -0.320D-01 0.119D+00-0.604D+00 0.152D+01
 Coeff-En:   0.000D+00 0.000D+00 0.000D+00 0.100D+01
 Coeff:     -0.287D-01 0.106D+00-0.542D+00 0.146D+01
 Gap=     0.614 Goal=   None    Shift=    0.000
 Gap=     0.635 Goal=   None    Shift=    0.000
 RMSDP=3.52D-03 MaxDP=3.96D-02 DE=-3.23D-02 OVMax= 5.79D-02

 Cycle   5  Pass 1  IDiag  1:
 E= -116.980493130574     Delta-E=       -0.005695044553 Rises=F Damp=F
 DIIS: error= 2.98D-03 at cycle   5 NSaved=   5.
 NSaved= 5 IEnMin= 5 EnMin= -116.980493130574     IErMin= 5 ErrMin= 2.98D-03
 ErrMax= 2.98D-03  0.00D+00 EMaxC= 1.00D-01 BMatC= 6.78D-04 BMatP= 4.79D-03
 IDIUse=3 WtCom= 9.70D-01 WtEn= 2.98D-02
 Coeff-Com: -0.307D-01 0.680D-01-0.483D-02-0.423D+00 0.139D+01
 Coeff-En:   0.000D+00 0.000D+00 0.000D+00 0.000D+00 0.100D+01
 Coeff:     -0.298D-01 0.660D-01-0.468D-02-0.411D+00 0.138D+01
 Gap=     0.622 Goal=   None    Shift=    0.000
 Gap=     0.637 Goal=   None    Shift=    0.000
 RMSDP=9.50D-04 MaxDP=1.40D-02 DE=-5.70D-03 OVMax= 1.63D-02

 Cycle   6  Pass 1  IDiag  1:
 E= -116.981240441218     Delta-E=       -0.000747310644 Rises=F Damp=F
 DIIS: error= 1.00D-03 at cycle   6 NSaved=   6.
 NSaved= 6 IEnMin= 6 EnMin= -116.981240441218     IErMin= 6 ErrMin= 1.00D-03
 ErrMax= 1.00D-03  0.00D+00 EMaxC= 1.00D-01 BMatC= 1.04D-04 BMatP= 6.78D-04
 IDIUse=3 WtCom= 9.90D-01 WtEn= 1.00D-02
 Coeff-Com:  0.316D-02-0.159D-01 0.104D+00-0.265D+00-0.825D-01 0.126D+01
 Coeff-En:   0.000D+00 0.000D+00 0.000D+00 0.000D+00 0.000D+00 0.100D+01
 Coeff:      0.313D-02-0.157D-01 0.103D+00-0.263D+00-0.817D-01 0.125D+01
 Gap=     0.624 Goal=   None    Shift=    0.000
 Gap=     0.642 Goal=   None    Shift=    0.000
 RMSDP=3.93D-04 MaxDP=5.13D-03 DE=-7.47D-04 OVMax= 6.58D-03

 Cycle   7  Pass 1  IDiag  1:
 E= -116.981350981513     Delta-E=       -0.000110540295 Rises=F Damp=F
 DIIS: error= 2.24D-04 at cycle   7 NSaved=   7.
 NSaved= 7 IEnMin= 7 EnMin= -116.981350981513     IErMin= 7 ErrMin= 2.24D-04
 ErrMax= 2.24D-04  0.00D+00 EMaxC= 1.00D-01 BMatC= 9.49D-06 BMatP= 1.04D-04
 IDIUse=3 WtCom= 9.98D-01 WtEn= 2.24D-03
 Coeff-Com:  0.168D-02-0.191D-03-0.339D-01 0.126D+00-0.115D+00-0.389D+00
 Coeff-Com:  0.141D+01
 Coeff-En:   0.000D+00 0.000D+00 0.000D+00 0.000D+00 0.000D+00 0.000D+00
 Coeff-En:   0.100D+01
 Coeff:      0.167D-02-0.190D-03-0.338D-01 0.126D+00-0.115D+00-0.388D+00
 Coeff:      0.141D+01
 Gap=     0.625 Goal=   None    Shift=    0.000
 Gap=     0.642 Goal=   None    Shift=    0.000
 RMSDP=1.25D-04 MaxDP=1.62D-03 DE=-1.11D-04 OVMax= 1.34D-03

 Cycle   8  Pass 1  IDiag  1:
 E= -116.981360075852     Delta-E=       -0.000009094339 Rises=F Damp=F
 DIIS: error= 8.55D-05 at cycle   8 NSaved=   8.
 NSaved= 8 IEnMin= 8 EnMin= -116.981360075852     IErMin= 8 ErrMin= 8.55D-05
 ErrMax= 8.55D-05  0.00D+00 EMaxC= 1.00D-01 BMatC= 1.35D-06 BMatP= 9.49D-06
 IDIUse=1 WtCom= 1.00D+00 WtEn= 0.00D+00
 Coeff-Com: -0.799D-03 0.148D-02 0.334D-02-0.248D-01 0.578D-01 0.195D-01
 Coeff-Com: -0.555D+00 0.150D+01
 Coeff:     -0.799D-03 0.148D-02 0.334D-02-0.248D-01 0.578D-01 0.195D-01
 Coeff:     -0.555D+00 0.150D+01
 Gap=     0.625 Goal=   None    Shift=    0.000
 Gap=     0.642 Goal=   None    Shift=    0.000
 RMSDP=4.88D-05 MaxDP=5.06D-04 DE=-9.09D-06 OVMax= 4.64D-04

 Cycle   9  Pass 1  IDiag  1:
 E= -116.981361480528     Delta-E=       -0.000001404677 Rises=F Damp=F
 DIIS: error= 3.35D-05 at cycle   9 NSaved=   9.
 NSaved= 9 IEnMin= 9 EnMin= -116.981361480528     IErMin= 9 ErrMin= 3.35D-05
 ErrMax= 3.35D-05  0.00D+00 EMaxC= 1.00D-01 BMatC= 2.46D-07 BMatP= 1.35D-06
 IDIUse=1 WtCom= 1.00D+00 WtEn= 0.00D+00
 Coeff-Com: -0.232D-03 0.155D-03 0.318D-02-0.102D-01-0.343D-02 0.540D-01
 Coeff-Com: -0.866D-02-0.591D+00 0.156D+01
 Coeff:     -0.232D-03 0.155D-03 0.318D-02-0.102D-01-0.343D-02 0.540D-01
 Coeff:     -0.866D-02-0.591D+00 0.156D+01
 Gap=     0.625 Goal=   None    Shift=    0.000
 Gap=     0.642 Goal=   None    Shift=    0.000
 RMSDP=2.29D-05 MaxDP=2.86D-04 DE=-1.40D-06 OVMax= 2.22D-04

 Cycle  10  Pass 1  IDiag  1:
 E= -116.981361756354     Delta-E=       -0.000000275825 Rises=F Damp=F
 DIIS: error= 1.50D-05 at cycle  10 NSaved=  10.
 NSaved=10 IEnMin=10 EnMin= -116.981361756354     IErMin=10 ErrMin= 1.50D-05
 ErrMax= 1.50D-05  0.00D+00 EMaxC= 1.00D-01 BMatC= 3.36D-08 BMatP= 2.46D-07
 IDIUse=1 WtCom= 1.00D+00 WtEn= 0.00D+00
 Coeff-Com:  0.206D-04 0.432D-04-0.818D-03 0.391D-02-0.947D-02-0.130D-02
 Coeff-Com:  0.952D-01-0.295D+00 0.115D+00 0.109D+01
 Coeff:      0.206D-04 0.432D-04-0.818D-03 0.391D-02-0.947D-02-0.130D-02
 Coeff:      0.952D-01-0.295D+00 0.115D+00 0.109D+01
 Gap=     0.625 Goal=   None    Shift=    0.000
 Gap=     0.642 Goal=   None    Shift=    0.000
 RMSDP=7.24D-06 MaxDP=9.78D-05 DE=-2.76D-07 OVMax= 7.59D-05

 Cycle  11  Pass 1  IDiag  1:
 E= -116.981361786405     Delta-E=       -0.000000030051 Rises=F Damp=F
 DIIS: error= 6.25D-06 at cycle  11 NSaved=  11.
 NSaved=11 IEnMin=11 EnMin= -116.981361786405     IErMin=11 ErrMin= 6.25D-06
 ErrMax= 6.25D-06  0.00D+00 EMaxC= 1.00D-01 BMatC= 4.93D-09 BMatP= 3.36D-08
 IDIUse=1 WtCom= 1.00D+00 WtEn= 0.00D+00
 Coeff-Com:  0.264D-04-0.419D-04-0.593D-04-0.373D-03 0.437D-02-0.656D-02
 Coeff-Com: -0.351D-01 0.194D+00-0.269D+00-0.389D+00 0.150D+01
 Coeff:      0.264D-04-0.419D-04-0.593D-04-0.373D-03 0.437D-02-0.656D-02
 Coeff:     -0.351D-01 0.194D+00-0.269D+00-0.389D+00 0.150D+01
 Gap=     0.625 Goal=   None    Shift=    0.000
 Gap=     0.642 Goal=   None    Shift=    0.000
 RMSDP=3.22D-06 MaxDP=4.50D-05 DE=-3.01D-08 OVMax= 3.44D-05

 Cycle  12  Pass 1  IDiag  1:
 E= -116.981361791524     Delta-E=       -0.000000005119 Rises=F Damp=F
 DIIS: error= 2.30D-06 at cycle  12 NSaved=  12.
 NSaved=12 IEnMin=12 EnMin= -116.981361791524     IErMin=12 ErrMin= 2.30D-06
 ErrMax= 2.30D-06  0.00D+00 EMaxC= 1.00D-01 BMatC= 7.48D-10 BMatP= 4.93D-09
 IDIUse=1 WtCom= 1.00D+00 WtEn= 0.00D+00
 Coeff-Com: -0.858D-05-0.165D-05 0.110D-03 0.321D-04-0.239D-02 0.454D-02
 Coeff-Com:  0.169D-01-0.109D+00 0.178D+00 0.167D+00-0.109D+01 0.183D+01
 Coeff:     -0.858D-05-0.165D-05 0.110D-03 0.321D-04-0.239D-02 0.454D-02
 Coeff:      0.169D-01-0.109D+00 0.178D+00 0.167D+00-0.109D+01 0.183D+01
 Gap=     0.625 Goal=   None    Shift=    0.000
 Gap=     0.642 Goal=   None    Shift=    0.000
 RMSDP=1.38D-06 MaxDP=1.59D-05 DE=-5.12D-09 OVMax= 1.37D-05

 Cycle  13  Pass 1  IDiag  1:
 E= -116.981361792410     Delta-E=       -0.000000000886 Rises=F Damp=F
 DIIS: error= 7.15D-07 at cycle  13 NSaved=  13.
 NSaved=13 IEnMin=13 EnMin= -116.981361792410     IErMin=13 ErrMin= 7.15D-07
 ErrMax= 7.15D-07  0.00D+00 EMaxC= 1.00D-01 BMatC= 9.17D-11 BMatP= 7.48D-10
 IDIUse=1 WtCom= 1.00D+00 WtEn= 0.00D+00
 Coeff-Com:  0.415D-05-0.304D-05-0.299D-04-0.132D-04 0.778D-03-0.158D-02
 Coeff-Com: -0.508D-02 0.356D-01-0.636D-01-0.462D-01 0.427D+00-0.110D+01
 Coeff-Com:  0.175D+01
 Coeff:      0.415D-05-0.304D-05-0.299D-04-0.132D-04 0.778D-03-0.158D-02
 Coeff:     -0.508D-02 0.356D-01-0.636D-01-0.462D-01 0.427D+00-0.110D+01
 Coeff:      0.175D+01
 Gap=     0.625 Goal=   None    Shift=    0.000
 Gap=     0.642 Goal=   None    Shift=    0.000
 RMSDP=5.37D-07 MaxDP=5.88D-06 DE=-8.86D-10 OVMax= 4.92D-06

 Cycle  14  Pass 1  IDiag  1:
 E= -116.981361792521     Delta-E=       -0.000000000111 Rises=F Damp=F
 DIIS: error= 1.88D-07 at cycle  14 NSaved=  14.
 NSaved=14 IEnMin=14 EnMin= -116.981361792521     IErMin=14 ErrMin= 1.88D-07
 ErrMax= 1.88D-07  0.00D+00 EMaxC= 1.00D-01 BMatC= 5.21D-12 BMatP= 9.17D-11
 IDIUse=1 WtCom= 1.00D+00 WtEn= 0.00D+00
 Coeff-Com: -0.511D-06 0.363D-06 0.381D-05 0.645D-05-0.145D-03 0.295D-03
 Coeff-Com:  0.850D-03-0.638D-02 0.122D-01 0.751D-02-0.910D-01 0.300D+00
 Coeff-Com: -0.704D+00 0.148D+01
 Coeff:     -0.511D-06 0.363D-06 0.381D-05 0.645D-05-0.145D-03 0.295D-03
 Coeff:      0.850D-03-0.638D-02 0.122D-01 0.751D-02-0.910D-01 0.300D+00
 Coeff:     -0.704D+00 0.148D+01
 Gap=     0.625 Goal=   None    Shift=    0.000
 Gap=     0.642 Goal=   None    Shift=    0.000
 RMSDP=1.08D-07 MaxDP=1.36D-06 DE=-1.11D-10 OVMax= 1.09D-06

 Cycle  15  Pass 1  IDiag  1:
 E= -116.981361792526     Delta-E=       -0.000000000005 Rises=F Damp=F
 DIIS: error= 6.13D-08 at cycle  15 NSaved=  15.
 NSaved=15 IEnMin=15 EnMin= -116.981361792526     IErMin=15 ErrMin= 6.13D-08
 ErrMax= 6.13D-08  0.00D+00 EMaxC= 1.00D-01 BMatC= 6.18D-13 BMatP= 5.21D-12
 IDIUse=1 WtCom= 1.00D+00 WtEn= 0.00D+00
 Coeff-Com: -0.366D-06 0.721D-06-0.351D-06-0.402D-05 0.317D-04-0.525D-04
 Coeff-Com: -0.172D-03 0.122D-02-0.250D-02-0.123D-02 0.226D-01-0.973D-01
 Coeff-Com:  0.289D+00-0.877D+00 0.167D+01
 Coeff:     -0.366D-06 0.721D-06-0.351D-06-0.402D-05 0.317D-04-0.525D-04
 Coeff:     -0.172D-03 0.122D-02-0.250D-02-0.123D-02 0.226D-01-0.973D-01
 Coeff:      0.289D+00-0.877D+00 0.167D+01
 Gap=     0.625 Goal=   None    Shift=    0.000
 Gap=     0.642 Goal=   None    Shift=    0.000
 RMSDP=3.66D-08 MaxDP=4.40D-07 DE=-5.17D-12 OVMax= 3.29D-07

 Cycle  16  Pass 1  IDiag  1:
 E= -116.981361792527     Delta-E=       -0.000000000001 Rises=F Damp=F
 DIIS: error= 2.00D-08 at cycle  16 NSaved=  16.
 NSaved=16 IEnMin=16 EnMin= -116.981361792527     IErMin=16 ErrMin= 2.00D-08
 ErrMax= 2.00D-08  0.00D+00 EMaxC= 1.00D-01 BMatC= 8.64D-14 BMatP= 6.18D-13
 IDIUse=1 WtCom= 1.00D+00 WtEn= 0.00D+00
 Coeff-Com:  0.299D-06-0.522D-06 0.393D-07 0.194D-06 0.356D-05-0.110D-04
 Coeff-Com: -0.223D-04 0.182D-03-0.264D-03-0.320D-03-0.198D-03 0.128D-01
 Coeff-Com: -0.632D-01 0.287D+00-0.971D+00 0.174D+01
 Coeff:      0.299D-06-0.522D-06 0.393D-07 0.194D-06 0.356D-05-0.110D-04
 Coeff:     -0.223D-04 0.182D-03-0.264D-03-0.320D-03-0.198D-03 0.128D-01
 Coeff:     -0.632D-01 0.287D+00-0.971D+00 0.174D+01
 Gap=     0.625 Goal=   None    Shift=    0.000
 Gap=     0.642 Goal=   None    Shift=    0.000
 RMSDP=1.64D-08 MaxDP=1.85D-07 DE=-7.39D-13 OVMax= 1.43D-07

 Cycle  17  Pass 1  IDiag  1:
 E= -116.981361792528     Delta-E=       -0.000000000001 Rises=F Damp=F
 DIIS: error= 5.27D-09 at cycle  17 NSaved=  17.
 NSaved=17 IEnMin=17 EnMin= -116.981361792528     IErMin=17 ErrMin= 5.27D-09
 ErrMax= 5.27D-09  0.00D+00 EMaxC= 1.00D-01 BMatC= 5.57D-15 BMatP= 8.64D-14
 IDIUse=1 WtCom= 1.00D+00 WtEn= 0.00D+00
 Large coefficients: NSaved= 17 BigCof=    0.00 CofMax=   10.00 Det=-3.17D-15
 Inversion failed.  Reducing to 16 matrices.
 Large coefficients: NSaved= 16 BigCof=    0.00 CofMax=   10.00 Det=-4.10D-15
 Inversion failed.  Reducing to 15 matrices.
 Coeff-Com: -0.206D-06 0.132D-05-0.330D-05 0.156D-05 0.198D-04-0.813D-04
 Coeff-Com:  0.114D-03 0.120D-03-0.579D-03 0.121D-03 0.524D-02-0.450D-01
 Coeff-Com:  0.256D+00-0.697D+00 0.148D+01
 Coeff:     -0.206D-06 0.132D-05-0.330D-05 0.156D-05 0.198D-04-0.813D-04
 Coeff:      0.114D-03 0.120D-03-0.579D-03 0.121D-03 0.524D-02-0.450D-01
 Coeff:      0.256D+00-0.697D+00 0.148D+01
 Gap=     0.625 Goal=   None    Shift=    0.000
 Gap=     0.642 Goal=   None    Shift=    0.000
 RMSDP=3.70D-09 MaxDP=3.54D-08 DE=-7.96D-13 OVMax= 3.65D-08

 SCF Done:  E(UHF) =  -116.981361793     A.U. after   17 cycles
            NFock= 17  Conv=0.37D-08     -V/T= 2.0019
 <Sx>= 0.0000 <Sy>= 0.0000 <Sz>= 0.5000 <S**2>= 0.7635 S= 0.5067
 <L.S>=  0.00000000000    
 KE= 1.167604909678D+02 PE=-4.237145935352D+02 EE= 1.138393346577D+02
 Annihilation of the first spin contaminant:
 S**2 before annihilation     0.7635,   after     0.7501
 Leave Link  502 at Sun May 22 09:08:31 2022, MaxMem=   939524096 cpu:         1.2
 (Enter /Local/ce_dana/g09/l508.exe)
 QCSCF skips out because SCF is already converged.
 Leave Link  508 at Sun May 22 09:08:31 2022, MaxMem=   939524096 cpu:         0.0
 (Enter /Local/ce_dana/g09/l801.exe)
 Range of M.O.s used for correlation:     1    41
 NBasis=    41 NAE=    13 NBE=    12 NFC=     0 NFV=     0
 NROrb=     41 NOA=    13 NOB=    12 NVA=    28 NVB=    29
 Leave Link  801 at Sun May 22 09:08:31 2022, MaxMem=   939524096 cpu:         0.0
 (Enter /Local/ce_dana/g09/l1101.exe)
 Using compressed storage, NAtomX=    10.
 Will process     11 centers per pass.
 Leave Link 1101 at Sun May 22 09:08:31 2022, MaxMem=   939524096 cpu:         1.2
 (Enter /Local/ce_dana/g09/l1102.exe)
 Symmetrizing basis deriv contribution to polar:
 IMax=3 JMax=2 DiffMx= 0.00D+00
 Leave Link 1102 at Sun May 22 09:08:31 2022, MaxMem=   939524096 cpu:         0.0
 (Enter /Local/ce_dana/g09/l1110.exe)
 Forming Gx(P) for the SCF density, NAtomX=    10.
 Integral derivatives from FoFJK, PRISM(SPDF).
 Do as many integral derivatives as possible in FoFJK.
 G2DrvN: MDV=     939523912.
 G2DrvN: will do    11 centers at a time, making    1 passes.
 Calling FoFCou, ICntrl=  3107 FMM=F I1Cent=   0 AccDes= 0.00D+00.
 FoFJK:  IHMeth= 1 ICntrl=    3107 DoSepK=F KAlg= 0 I1Cent=   0 FoldK=F
 IRaf=         0 NMat=   1 IRICut=       1 DoRegI=T DoRafI=F ISym2E= 0.
 FoFCou: FMM=F IPFlag=           0 FMFlag=      100000 FMFlg1=           0
         NFxFlg=           0 DoJE=F BraDBF=F KetDBF=F FulRan=T
         wScrn=  0.000000 ICntrl=    3107 IOpCl=  1 I1Cent=           0 NGrid=           0
         NMat0=    1 NMatS0=      1 NMatT0=    0 NMatD0=    1 NMtDS0=    0 NMtDT0=    0
 Symmetry not used in FoFCou.
 End of G2Drv F.D. properties file   721 does not exist.
 End of G2Drv F.D. properties file   722 does not exist.
 End of G2Drv F.D. properties file   788 does not exist.
 Leave Link 1110 at Sun May 22 09:08:31 2022, MaxMem=   939524096 cpu:         0.9
 (Enter /Local/ce_dana/g09/l1002.exe)
 Minotr:  UHF open shell wavefunction.
          IDoAtm=1111111111
          Direct CPHF calculation.
          Differentiating once with respect to nuclear coordinates.
          Requested convergence is 1.0D-08 RMS, and 1.0D-07 maximum.
          Secondary convergence is 1.0D-12 RMS, and 1.0D-12 maximum.
          NewPWx=T KeepS1=F KeepF1=F KeepIn=T MapXYZ=F SortEE=F KeepMc=T.
          MDV=     939523910 using IRadAn=       2.
 Keep R1 and R2 ints in memory in canonical form, NReq=1562623.
 FoFCou: FMM=F IPFlag=           0 FMFlag=           0 FMFlg1=           0
         NFxFlg=           0 DoJE=F BraDBF=F KetDBF=F FulRan=T
         wScrn=  0.000000 ICntrl=     600 IOpCl=  0 I1Cent=           0 NGrid=           0
         NMat0=    1 NMatS0=    861 NMatT0=    0 NMatD0=    1 NMtDS0=    0 NMtDT0=    0
 Symmetry not used in FoFCou.
          Solving linear equations simultaneously, MaxMat=       0.
          There are    33 degrees of freedom in the 1st order CPHF.  IDoFFX=6 NUNeed=     0.
     27 vectors produced by pass  0 Test12= 2.16D-15 3.03D-09 XBig12= 8.17D-02 6.96D-02.
 AX will form    27 AO Fock derivatives at one time.
     27 vectors produced by pass  1 Test12= 2.16D-15 3.03D-09 XBig12= 1.98D-03 1.41D-02.
     27 vectors produced by pass  2 Test12= 2.16D-15 3.03D-09 XBig12= 4.93D-05 1.29D-03.
     27 vectors produced by pass  3 Test12= 2.16D-15 3.03D-09 XBig12= 7.74D-07 1.52D-04.
     27 vectors produced by pass  4 Test12= 2.16D-15 3.03D-09 XBig12= 1.37D-08 1.74D-05.
     27 vectors produced by pass  5 Test12= 2.16D-15 3.03D-09 XBig12= 1.36D-10 1.70D-06.
     26 vectors produced by pass  6 Test12= 2.16D-15 3.03D-09 XBig12= 1.22D-12 1.38D-07.
      7 vectors produced by pass  7 Test12= 2.16D-15 3.03D-09 XBig12= 9.27D-15 1.39D-08.
 InvSVY:  IOpt=1 It=  1 EMax= 1.55D-15
 Solved reduced A of dimension   195 with    27 vectors.
 End of Minotr F.D. properties file   721 does not exist.
 End of Minotr F.D. properties file   722 does not exist.
 End of Minotr F.D. properties file   788 does not exist.
 Leave Link 1002 at Sun May 22 09:08:31 2022, MaxMem=   939524096 cpu:         1.4
 (Enter /Local/ce_dana/g09/l601.exe)
 Copying SCF densities to generalized density rwf, IOpCl= 1 IROHF=0.

 **********************************************************************

            Population analysis using the SCF density.

 **********************************************************************

 Orbital symmetries:
 Alpha Orbitals:
       Occupied  (A) (A) (A) (A) (A) (A) (A) (A) (A) (A) (A) (A)
                 (A)
       Virtual   (A) (A) (A) (A) (A) (A) (A) (A) (A) (A) (A) (A)
                 (A) (A) (A) (A) (A) (A) (A) (A) (A) (A) (A) (A)
                 (A) (A) (A) (A)
 Beta  Orbitals:
       Occupied  (A) (A) (A) (A) (A) (A) (A) (A) (A) (A) (A) (A)
       Virtual   (A) (A) (A) (A) (A) (A) (A) (A) (A) (A) (A) (A)
                 (A) (A) (A) (A) (A) (A) (A) (A) (A) (A) (A) (A)
                 (A) (A) (A) (A) (A)
 The electronic state is 2-A.
 Alpha  occ. eigenvalues --  -11.16653 -11.16279 -11.15469  -1.06693  -0.92794
 Alpha  occ. eigenvalues --   -0.79952  -0.63082  -0.60726  -0.56398  -0.50887
 Alpha  occ. eigenvalues --   -0.48872  -0.47837  -0.34874
 Alpha virt. eigenvalues --    0.27598   0.31215   0.31786   0.33420   0.35591
 Alpha virt. eigenvalues --    0.36588   0.39262   0.43785   0.47387   0.89470
 Alpha virt. eigenvalues --    0.91856   0.95906   0.98794   1.01362   1.06334
 Alpha virt. eigenvalues --    1.08377   1.18904   1.22708   1.30760   1.35282
 Alpha virt. eigenvalues --    1.35968   1.37885   1.39755   1.42480   1.50651
 Alpha virt. eigenvalues --    1.76554   2.05554   2.40334
  Beta  occ. eigenvalues --  -11.16634 -11.15374 -11.14163  -1.04725  -0.88458
  Beta  occ. eigenvalues --   -0.76326  -0.61920  -0.59342  -0.55422  -0.49466
  Beta  occ. eigenvalues --   -0.47884  -0.47314
  Beta virt. eigenvalues --    0.16869   0.28106   0.32195   0.33208   0.34013
  Beta virt. eigenvalues --    0.35790   0.37142   0.40274   0.44815   0.48642
  Beta virt. eigenvalues --    0.90023   0.94069   0.96910   1.02541   1.05979
  Beta virt. eigenvalues --    1.08483   1.10901   1.20072   1.23602   1.31846
  Beta virt. eigenvalues --    1.35753   1.36017   1.38521   1.40489   1.42910
  Beta virt. eigenvalues --    1.51045   1.80130   2.06617   2.40547
          Condensed to atoms (all electrons):
               1          2          3          4          5          6
     1  C    5.537713   0.243506  -0.089066   0.382346   0.379347  -0.055137
     2  C    0.243506   5.464718   0.239242  -0.042689  -0.044364   0.381205
     3  C   -0.089066   0.239242   5.368710   0.002736  -0.001148  -0.045524
     4  H    0.382346  -0.042689   0.002736   0.486161  -0.022526   0.000779
     5  H    0.379347  -0.044364  -0.001148  -0.022526   0.489361   0.000622
     6  H   -0.055137   0.381205  -0.045524   0.000779   0.000622   0.527471
     7  H   -0.047032   0.387653  -0.041235  -0.001696   0.002380  -0.026646
     8  H   -0.001255  -0.046579   0.378488  -0.000012   0.002057  -0.002100
     9  H    0.003972  -0.043421   0.378834  -0.000050  -0.000032  -0.001291
    10  H    0.000539  -0.045988   0.377805  -0.000021   0.000234   0.003200
               7          8          9         10
     1  C   -0.047032  -0.001255   0.003972   0.000539
     2  C    0.387653  -0.046579  -0.043421  -0.045988
     3  C   -0.041235   0.378488   0.378834   0.377805
     4  H   -0.001696  -0.000012  -0.000050  -0.000021
     5  H    0.002380   0.002057  -0.000032   0.000234
     6  H   -0.026646  -0.002100  -0.001291   0.003200
     7  H    0.512983   0.003130  -0.002171  -0.001984
     8  H    0.003130   0.522579  -0.025766  -0.026249
     9  H   -0.002171  -0.025766   0.517587  -0.025225
    10  H   -0.001984  -0.026249  -0.025225   0.514981
          Atomic-Atomic Spin Densities.
               1          2          3          4          5          6
     1  C    1.479108  -0.073349  -0.017855  -0.022257  -0.022776  -0.027423
     2  C   -0.073349  -0.183965   0.018832   0.002245   0.002442   0.019552
     3  C   -0.017855   0.018832   0.042734   0.000004   0.001137  -0.010031
     4  H   -0.022257   0.002245   0.000004  -0.094979   0.003222  -0.000272
     5  H   -0.022776   0.002442   0.001137   0.003222  -0.093374  -0.000251
     6  H   -0.027423   0.019552  -0.010031  -0.000272  -0.000251   0.094402
     7  H   -0.010138   0.010128   0.003147   0.000738   0.000007  -0.008341
     8  H   -0.000308   0.001245  -0.000400   0.000011  -0.000004  -0.000579
     9  H    0.000463   0.000893  -0.003957   0.000000  -0.000025   0.001307
    10  H    0.003391  -0.000343  -0.004959  -0.000019  -0.000061   0.000459
               7          8          9         10
     1  C   -0.010138  -0.000308   0.000463   0.003391
     2  C    0.010128   0.001245   0.000893  -0.000343
     3  C    0.003147  -0.000400  -0.003957  -0.004959
     4  H    0.000738   0.000011   0.000000  -0.000019
     5  H    0.000007  -0.000004  -0.000025  -0.000061
     6  H   -0.008341  -0.000579   0.001307   0.000459
     7  H    0.028206   0.000093  -0.000423  -0.000569
     8  H    0.000093  -0.003201   0.000063  -0.000046
     9  H   -0.000423   0.000063  -0.000987   0.001531
    10  H   -0.000569  -0.000046   0.001531  -0.000999
 Mulliken charges and spin densities:
               1          2
     1  C   -0.354934   1.308858
     2  C   -0.493283  -0.202319
     3  C   -0.568840   0.028653
     4  H    0.194972  -0.111307
     5  H    0.194070  -0.109682
     6  H    0.217421   0.068823
     7  H    0.214617   0.022849
     8  H    0.195706  -0.003126
     9  H    0.197563  -0.001134
    10  H    0.202709  -0.001615
 Sum of Mulliken charges =   0.00000   1.00000
 Mulliken charges and spin densities with hydrogens summed into heavy atoms:
               1          2
     1  C    0.034108   1.087869
     2  C   -0.061245  -0.110646
     3  C    0.027137   0.022778
 APT charges:
               1
     1  C   -0.887022
     2  C   -0.718969
     3  C   -1.257618
     4  H    0.489431
     5  H    0.381036
     6  H    0.401119
     7  H    0.404690
     8  H    0.370546
     9  H    0.440188
    10  H    0.376598
 Sum of APT charges =   0.00000
 APT charges with hydrogens summed into heavy atoms:
               1
     1  C   -0.016555
     2  C    0.086840
     3  C   -0.070285
 Electronic spatial extent (au):  <R**2>=            210.2689
 Charge=              0.0000 electrons
 Dipole moment (field-independent basis, Debye):
    X=             -0.0438    Y=              0.1318    Z=              0.1208  Tot=              0.1841
 Quadrupole moment (field-independent basis, Debye-Ang):
   XX=            -21.2744   YY=            -20.9596   ZZ=            -21.5907
   XY=              0.0213   XZ=             -0.1082   YZ=             -0.5663
 Traceless Quadrupole moment (field-independent basis, Debye-Ang):
   XX=              0.0005   YY=              0.3153   ZZ=             -0.3158
   XY=              0.0213   XZ=             -0.1082   YZ=             -0.5663
 Octapole moment (field-independent basis, Debye-Ang**2):
  XXX=              1.1036  YYY=             -0.4695  ZZZ=              0.2289  XYY=              0.0497
  XXY=              1.0353  XXZ=             -0.7771  XZZ=             -0.9681  YZZ=              0.3211
  YYZ=              0.5847  XYZ=             -0.7489
 Hexadecapole moment (field-independent basis, Debye-Ang**3):
 XXXX=           -182.4184 YYYY=            -63.9019 ZZZZ=            -36.7627 XXXY=             -0.4135
 XXXZ=             -2.9225 YYYX=             -0.9331 YYYZ=             -2.0435 ZZZX=              0.4746
 ZZZY=              0.0151 XXYY=            -41.3496 XXZZ=            -38.8917 YYZZ=            -15.4441
 XXYZ=             -1.1518 YYXZ=              0.5600 ZZXY=              1.2250
 N-N= 7.613340611725D+01 E-N=-4.237145935192D+02  KE= 1.167604909678D+02
  Exact polarizability:   0.000   0.000   0.000   0.000   0.000   0.000
 Approx polarizability:  23.838  -0.689  24.380  -1.234  -1.709  21.194
                          Isotropic Fermi Contact Couplings
        Atom                 a.u.       MegaHertz       Gauss      10(-4) cm-1
     1  C(13)              0.23830     267.89104      95.59018      89.35883
     2  C(13)             -0.05663     -63.65761     -22.71462     -21.23389
     3  C(13)              0.02038      22.91026       8.17495       7.64204
     4  H(1)              -0.02717    -121.43559     -43.33124     -40.50655
     5  H(1)              -0.02706    -120.96284     -43.16255     -40.34886
     6  H(1)               0.02641     118.04709      42.12214      39.37627
     7  H(1)               0.00813      36.32417      12.96137      12.11644
     8  H(1)              -0.00094      -4.21586      -1.50432      -1.40626
     9  H(1)              -0.00074      -3.32840      -1.18766      -1.11023
    10  H(1)              -0.00122      -5.47441      -1.95340      -1.82607
 --------------------------------------------------------
       Center         ----  Spin Dipole Couplings  ----
                      3XX-RR        3YY-RR        3ZZ-RR
 --------------------------------------------------------
     1   Atom       -0.387980     -0.299302      0.687282
     2   Atom        0.001614     -0.001945      0.000331
     3   Atom        0.026402     -0.012170     -0.014233
     4   Atom        0.052119     -0.043884     -0.008235
     5   Atom       -0.075171      0.072984      0.002187
     6   Atom        0.007476      0.004188     -0.011664
     7   Atom        0.002728      0.007911     -0.010639
     8   Atom        0.007814     -0.004836     -0.002978
     9   Atom        0.006423     -0.002576     -0.003848
    10   Atom        0.011606     -0.007074     -0.004531
 --------------------------------------------------------
                        XY            XZ            YZ
 --------------------------------------------------------
     1   Atom        0.133068      0.325369      0.451487
     2   Atom        0.003646      0.001279     -0.000703
     3   Atom        0.007522     -0.005309     -0.000861
     4   Atom        0.065241     -0.034797     -0.002857
     5   Atom        0.003014      0.016028     -0.045320
     6   Atom       -0.013435     -0.008775      0.002740
     7   Atom       -0.014873      0.006419      0.000593
     8   Atom        0.004190     -0.005145     -0.002212
     9   Atom       -0.003191     -0.000449      0.000435
    10   Atom        0.002860      0.005399      0.002431
 --------------------------------------------------------


 ---------------------------------------------------------------------------------
              Anisotropic Spin Dipole Couplings in Principal Axis System
 ---------------------------------------------------------------------------------

       Atom             a.u.   MegaHertz   Gauss  10(-4) cm-1        Axes

              Baa    -0.4839   -64.935   -23.170   -21.660  0.8100 -0.5864  0.0010
     1 C(13)  Bbb    -0.4708   -63.178   -22.543   -21.074  0.5289  0.7298 -0.4331
              Bcc     0.9547   128.113    45.714    42.734  0.2532  0.3514  0.9013
 
              Baa    -0.0046    -0.612    -0.218    -0.204 -0.5304  0.8085  0.2549
     2 C(13)  Bbb     0.0005     0.070     0.025     0.023 -0.0350 -0.3214  0.9463
              Bcc     0.0040     0.542     0.193     0.181  0.8470  0.4930  0.1988
 
              Baa    -0.0149    -2.002    -0.715    -0.668  0.1405 -0.0749  0.9873
     3 C(13)  Bbb    -0.0136    -1.821    -0.650    -0.607 -0.1713  0.9803  0.0987
              Bcc     0.0285     3.824     1.364     1.275  0.9751  0.1830 -0.1248
 
              Baa    -0.0795   -42.441   -15.144   -14.157 -0.4768  0.8564 -0.1983
     4 H(1)   Bbb    -0.0158    -8.414    -3.002    -2.807  0.1762  0.3142  0.9329
              Bcc     0.0953    50.855    18.146    16.964  0.8612  0.4098 -0.3007
 
              Baa    -0.0794   -42.382   -15.123   -14.137  0.9665 -0.0905 -0.2400
     5 H(1)   Bbb    -0.0158    -8.414    -3.002    -2.806  0.2552  0.4328  0.8646
              Bcc     0.0952    50.796    18.125    16.944 -0.0257  0.8969 -0.4414
 
              Baa    -0.0155    -8.270    -2.951    -2.758  0.4402  0.1779  0.8801
     6 H(1)   Bbb    -0.0060    -3.212    -1.146    -1.071  0.4995  0.7660 -0.4046
              Bcc     0.0215    11.481     4.097     3.830  0.7462 -0.6177 -0.2483
 
              Baa    -0.0157    -8.391    -2.994    -2.799 -0.5562 -0.3687  0.7448
     7 H(1)   Bbb    -0.0051    -2.739    -0.977    -0.913  0.5120  0.5539  0.6565
              Bcc     0.0209    11.129     3.971     3.712 -0.6546  0.7465 -0.1193
 
              Baa    -0.0064    -3.406    -1.215    -1.136 -0.1197  0.9055  0.4070
     8 H(1)   Bbb    -0.0049    -2.599    -0.927    -0.867  0.4446 -0.3176  0.8375
              Bcc     0.0113     6.005     2.143     2.003  0.8877  0.2813 -0.3646
 
              Baa    -0.0040    -2.159    -0.770    -0.720 -0.1192 -0.5108  0.8514
     9 H(1)   Bbb    -0.0034    -1.826    -0.651    -0.609  0.2844  0.8040  0.5222
              Bcc     0.0075     3.984     1.422     1.329  0.9513 -0.3044 -0.0494
 
              Baa    -0.0086    -4.565    -1.629    -1.523  0.0261  0.8397 -0.5423
    10 H(1)   Bbb    -0.0053    -2.807    -1.001    -0.936 -0.3392  0.5178  0.7854
              Bcc     0.0138     7.371     2.630     2.459  0.9403  0.1635  0.2984
 

 ---------------------------------------------------------------------------------

 No NMR shielding tensors so no spin-rotation constants.
 Leave Link  601 at Sun May 22 09:08:32 2022, MaxMem=   939524096 cpu:         1.7
 (Enter /Local/ce_dana/g09/l701.exe)
 Compute integral second derivatives.
 ... and contract with generalized density number  0.
 Leave Link  701 at Sun May 22 09:08:32 2022, MaxMem=   939524096 cpu:         1.3
 (Enter /Local/ce_dana/g09/l702.exe)
 L702 exits ... SP integral derivatives will be done elsewhere.
 Leave Link  702 at Sun May 22 09:08:32 2022, MaxMem=   939524096 cpu:         0.0
 (Enter /Local/ce_dana/g09/l703.exe)
 Compute integral second derivatives, UseDBF=F ICtDFT=           0.
 Integral derivatives from FoFJK, PRISM(SPDF).
 Calling FoFJK, ICntrl=    100147 FMM=F ISym2X=0 I1Cent= 0 IOpClX= 1 NMat=1 NMatS=1 NMatT=0.
 FoFJK:  IHMeth= 1 ICntrl=  100147 DoSepK=F KAlg= 0 I1Cent=   0 FoldK=F
 IRaf=         0 NMat=   1 IRICut=       1 DoRegI=T DoRafI=F ISym2E= 0.
 FoFCou: FMM=F IPFlag=           0 FMFlag=      100000 FMFlg1=         800
         NFxFlg=           0 DoJE=F BraDBF=F KetDBF=F FulRan=T
         wScrn=  0.000000 ICntrl=  100147 IOpCl=  1 I1Cent=           0 NGrid=           0
         NMat0=    1 NMatS0=      1 NMatT0=    0 NMatD0=    1 NMtDS0=    0 NMtDT0=    0
 Symmetry not used in FoFCou.
 Leave Link  703 at Sun May 22 09:08:32 2022, MaxMem=   939524096 cpu:         0.6
 (Enter /Local/ce_dana/g09/l716.exe)
 Dipole        =-1.72278433D-02 5.18703311D-02 4.75261796D-02
 Polarizability= 0.00000000D+00 0.00000000D+00 0.00000000D+00
                 0.00000000D+00 0.00000000D+00 0.00000000D+00
 ***** Axes restored to original set *****
 -------------------------------------------------------------------
 Center     Atomic                   Forces (Hartrees/Bohr)
 Number     Number              X              Y              Z
 -------------------------------------------------------------------
      1        6           0.016124078    0.003821638   -0.006741949
      2        6           0.003883204   -0.011506173    0.002098573
      3        6          -0.016069304    0.010280530    0.006909417
      4        1          -0.005397269    0.005128250   -0.001644392
      5        1           0.000461047   -0.005832089    0.004090232
      6        1          -0.000437990    0.000726060    0.004562471
      7        1          -0.003162992    0.001639376   -0.006263214
      8        1           0.002774122   -0.003836784    0.005332215
      9        1           0.004201095    0.004675420   -0.002765320
     10        1          -0.002375992   -0.005096227   -0.005578033
 -------------------------------------------------------------------
 Cartesian Forces:  Max     0.016124078 RMS     0.006394926
 Force constants in Cartesian coordinates: 
                1             2             3             4             5 
      1  0.580635D+00
      2 -0.973234D-01  0.474979D+00
      3 -0.771307D-01 -0.246832D+00  0.251709D+00
      4 -0.184250D+00 -0.425611D-01  0.551403D-01  0.530166D+00
      5 -0.401551D-01 -0.110459D+00  0.485293D-01 -0.472379D-02  0.557564D+00
      6  0.535402D-01  0.506372D-01 -0.878099D-01  0.319921D-01 -0.290288D-01
      7 -0.342730D-01  0.234384D-01  0.105916D-01 -0.135290D+00  0.535951D-01
      8 -0.117504D-01  0.127195D-01  0.277344D-02  0.534488D-01 -0.148208D+00
      9  0.157088D-01 -0.126099D-01 -0.436750D-02  0.204421D-01 -0.217291D-01
     10 -0.278344D+00  0.125123D+00  0.523261D-02 -0.147161D-01  0.178577D-01
     11  0.132348D+00 -0.122649D+00  0.282523D-01 -0.155179D-01  0.114424D-01
     12  0.793763D-02  0.258085D-01 -0.306077D-01  0.115154D-01 -0.695887D-02
     13 -0.688880D-01  0.315182D-01 -0.742103D-02  0.680753D-02 -0.215820D-01
     14  0.267292D-01 -0.229611D+00  0.157374D+00  0.635384D-02 -0.707688D-02
     15 -0.629941D-02  0.163398D+00 -0.131438D+00 -0.425075D-02  0.726986D-02
     16 -0.214518D-01 -0.221804D-01 -0.121810D-01 -0.101795D+00 -0.684066D-01
     17 -0.134922D-01 -0.102770D-01 -0.499230D-02 -0.616233D-01 -0.150440D+00
     18  0.835115D-02  0.106587D-01  0.123003D-01 -0.676346D-01 -0.966961D-01
     19  0.637161D-02 -0.235715D-01  0.271312D-01 -0.804024D-01  0.414499D-01
     20  0.269294D-02 -0.127992D-01  0.139297D-01  0.400973D-01 -0.131237D+00
     21 -0.307222D-02  0.111692D-01 -0.116797D-01 -0.576669D-01  0.107264D+00
     22  0.113312D-02  0.505318D-03 -0.152457D-02 -0.995746D-02  0.153969D-01
     23 -0.163125D-02  0.723301D-03  0.477756D-04  0.979246D-02 -0.165020D-01
     24 -0.360760D-03 -0.316144D-03  0.777876D-03  0.606342D-02 -0.845170D-02
     25 -0.273643D-02  0.503326D-02  0.498175D-03 -0.210692D-01 -0.127560D-01
     26  0.372737D-02 -0.387433D-02 -0.397358D-03  0.257809D-01  0.124625D-01
     27  0.182932D-02 -0.221730D-02  0.647391D-03  0.888783D-02  0.624819D-02
     28  0.180305D-02  0.181795D-04 -0.336590D-03  0.105061D-01  0.193239D-01
     29 -0.114509D-02  0.124754D-02  0.131535D-02 -0.110472D-01 -0.175455D-01
     30 -0.503928D-03  0.304289D-03  0.468034D-03 -0.448875D-02 -0.644665D-02
                6             7             8             9            10 
      6  0.583337D+00
      7  0.237868D-01  0.578023D+00
      8 -0.205085D-01  0.396545D-01  0.574006D+00
      9 -0.104379D+00  0.146121D-01 -0.178754D-01  0.604664D+00
     10 -0.254035D-02 -0.306789D-02 -0.429383D-02  0.172684D-02  0.294302D+00
     11  0.702841D-03 -0.168738D-02 -0.173902D-02  0.936055D-03 -0.137267D+00
     12  0.211448D-02  0.278336D-02  0.148900D-02 -0.949979D-03 -0.662919D-02
     13  0.173625D-01  0.278723D-02 -0.723554D-03 -0.221336D-04  0.167056D-02
     14  0.667630D-02  0.559276D-03  0.113919D-02 -0.858615D-03 -0.150004D-02
     15 -0.479580D-02 -0.857788D-03  0.704103D-03  0.304929D-03  0.163026D-02
     16 -0.791648D-01  0.111340D-01  0.205928D-01  0.202498D-01 -0.734795D-03
     17 -0.103079D+00 -0.110754D-01 -0.187028D-01 -0.199989D-01 -0.788227D-03
     18 -0.166146D+00 -0.525139D-02 -0.767781D-02 -0.796597D-02 -0.289371D-03
     19 -0.563141D-01 -0.104369D-01  0.162878D-01 -0.215692D-01  0.139295D-02
     20  0.105342D+00  0.907163D-02 -0.161683D-01  0.220541D-01 -0.309146D-03
     21 -0.220272D+00  0.506001D-02 -0.859808D-02  0.112107D-01  0.560111D-03
     22 -0.216506D-01 -0.871240D-01  0.423404D-01 -0.623813D-01  0.193490D-03
     23  0.229144D-01  0.430788D-01 -0.132095D+00  0.103748D+00 -0.361700D-04
     24  0.107964D-01 -0.646856D-01  0.106483D+00 -0.216495D+00 -0.232019D-03
     25  0.119268D-01 -0.216336D+00 -0.886460D-01  0.835291D-01 -0.921746D-03
     26 -0.145765D-01 -0.928759D-01 -0.114051D+00  0.497420D-01  0.113677D-02
     27 -0.544151D-02  0.837043D-01  0.474222D-01 -0.106730D+00  0.520431D-03
     28  0.210616D-01 -0.105416D+00 -0.669106D-01 -0.722961D-01  0.225546D-03
     29 -0.190797D-01 -0.637590D-01 -0.156901D+00 -0.103409D+00  0.771796D-04
     30 -0.740302D-02 -0.697434D-01 -0.104212D+00 -0.175292D+00  0.206800D-04
               11            12            13            14            15 
     11  0.119321D+00
     12 -0.270315D-01  0.266482D-01
     13  0.216628D-01 -0.170480D-01  0.622274D-01
     14 -0.758855D-02  0.847969D-02 -0.288039D-01  0.242491D+00
     15 -0.186307D-02  0.255582D-02  0.627526D-02 -0.170751D+00  0.134458D+00
     16  0.373712D-03  0.756878D-03 -0.327629D-03 -0.426686D-03  0.456547D-03
     17 -0.628719D-03 -0.364440D-04 -0.251949D-03 -0.316119D-03  0.578259D-03
     18 -0.578788D-03 -0.215490D-03 -0.607384D-03 -0.386463D-03 -0.352211D-03
     19  0.886580D-03 -0.121648D-03 -0.401140D-02 -0.204818D-02  0.229054D-02
     20  0.933970D-03 -0.941928D-03 -0.248633D-02  0.696334D-04  0.167600D-02
     21 -0.554102D-03  0.517623D-03  0.227343D-02 -0.394839D-03 -0.533853D-03
     22 -0.386590D-03  0.182051D-03 -0.471631D-03 -0.701226D-03  0.652644D-03
     23  0.185811D-03 -0.181566D-03  0.455743D-03  0.714615D-03 -0.366705D-03
     24 -0.192924D-03  0.172265D-03 -0.513253D-03  0.216995D-04  0.181066D-03
     25 -0.529637D-03  0.741806D-03  0.197995D-03 -0.349276D-04 -0.504724D-05
     26  0.739031D-03 -0.594784D-03 -0.119825D-04  0.996354D-04 -0.400000D-03
     27  0.215691D-03 -0.169986D-03 -0.391903D-03 -0.226251D-03  0.132575D-03
     28  0.117970D-03 -0.118278D-03  0.795413D-05 -0.127412D-03  0.107736D-03
     29 -0.170397D-04 -0.320925D-04  0.222948D-03  0.789304D-04 -0.245255D-03
     30  0.113543D-03 -0.652251D-04  0.924903D-04  0.653246D-04 -0.512974D-03
               16            17            18            19            20 
     16  0.119115D+00
     17  0.744059D-01  0.167652D+00
     18  0.769184D-01  0.114487D+00  0.182377D+00
     19 -0.509219D-02  0.956854D-02 -0.138857D-01  0.935910D-01
     20 -0.650026D-02  0.140351D-01 -0.191749D-01 -0.446714D-01  0.146674D+00
     21 -0.803053D-02  0.132495D-01 -0.213573D-01  0.600848D-01 -0.120685D+00
     22  0.110113D-02 -0.900638D-03  0.305151D-03 -0.276460D-02  0.357757D-02
     23 -0.106083D-02  0.279648D-03  0.216876D-03  0.366749D-02 -0.295205D-02
     24 -0.469208D-03  0.882506D-03  0.111834D-02  0.245855D-02 -0.223920D-02
     25  0.138298D-02 -0.130505D-04  0.623924D-04  0.139852D-03 -0.300722D-03
     26 -0.111701D-02  0.134810D-02  0.422570D-03 -0.785486D-03  0.135257D-02
     27 -0.284932D-03  0.155653D-03 -0.485824D-03 -0.488806D-03 -0.180412D-03
     28 -0.333112D-02  0.417030D-02  0.203143D-02  0.121210D-02 -0.117156D-02
     29  0.431937D-02 -0.295079D-02 -0.127113D-02 -0.783757D-03  0.918742D-04
     30  0.174891D-02 -0.124633D-02  0.727428D-03  0.414306D-03  0.219736D-03
               21            22            23            24            25 
     21  0.240059D+00
     22  0.216645D-02  0.922328D-01
     23 -0.255753D-02 -0.524887D-01  0.145001D+00
     24  0.511588D-03  0.701760D-01 -0.118202D+00  0.236636D+00
     25 -0.100853D-02  0.114976D-01  0.564915D-02 -0.503697D-02  0.240709D+00
     26  0.398367D-03 -0.164714D-01 -0.997322D-02  0.799848D-02  0.988454D-01
     27  0.661211D-03  0.249291D-01  0.136504D-01 -0.131487D-01 -0.972244D-01
     28 -0.366614D-03 -0.584046D-02 -0.742671D-02 -0.740013D-02 -0.128634D-01
     29  0.708433D-03  0.912834D-02  0.146184D-01  0.140160D-01 -0.724750D-02
     30  0.882528D-03 -0.128550D-01 -0.192701D-01 -0.205502D-01  0.651680D-02
               26            27            28            29            30 
     26  0.123138D+00
     27 -0.535696D-01  0.111831D+00
     28 -0.182287D-01 -0.214810D-01  0.113697D+00
     29 -0.112418D-01 -0.114987D-01  0.702347D-01  0.172619D+00
     30  0.109768D-01  0.127034D-01  0.787978D-01  0.119496D+00  0.189042D+00
 FormGI is forming the generalized inverse of G from B-inverse, IUseBI=4.
 Force constants in internal coordinates: 
                1             2             3             4             5 
      1  0.330922D+00
      2  0.273861D-02  0.369721D+00
      3  0.278522D-02  0.143496D-02  0.369911D+00
      4  0.124974D-01  0.929265D-05  0.128152D-02  0.320402D+00
      5  0.154189D-01  0.568360D-03  0.637818D-03  0.637073D-02  0.341268D+00
      6  0.754391D-02  0.123195D-02 -0.522500D-03  0.629553D-02  0.517605D-02
      7  0.919825D-03 -0.104687D-03  0.740356D-03  0.579002D-02  0.947639D-03
      8 -0.113528D-03  0.294131D-03 -0.202993D-03  0.576752D-02  0.921583D-03
      9  0.314854D-03  0.765997D-04  0.284068D-03  0.531096D-02 -0.796246D-03
     10  0.112131D-01  0.600590D-02 -0.129063D-01  0.471251D-02  0.864431D-03
     11  0.953210D-02 -0.127797D-01  0.637929D-02 -0.434166D-02  0.392030D-03
     12 -0.202153D-01  0.702456D-02  0.676728D-02 -0.424960D-03 -0.114443D-02
     13  0.178495D-01  0.466643D-02 -0.340611D-02  0.189334D-01 -0.660603D-02
     14  0.789152D-02 -0.813785D-03  0.832178D-03 -0.161803D-01  0.379805D-02
     15  0.825650D-02 -0.191597D-02  0.305849D-02 -0.164303D-01 -0.670959D-03
     16 -0.170190D-01 -0.169234D-02  0.637267D-03  0.877699D-02  0.326233D-02
     17 -0.149983D-01 -0.966613D-03 -0.106358D-03  0.912739D-02 -0.267289D-02
     18 -0.260065D-02  0.565592D-03 -0.907361D-03 -0.537916D-02  0.327789D-02
     19 -0.266053D-02 -0.709875D-03  0.121284D-02  0.190476D-01 -0.143862D-02
     20  0.629641D-02  0.140833D-02  0.493027D-04  0.197469D-01 -0.908564D-03
     21 -0.332293D-02 -0.287483D-03  0.133192D-03  0.195230D-01  0.406497D-02
     22 -0.118408D-02 -0.198773D-03 -0.710900D-03 -0.203174D-01  0.461921D-03
     23  0.178121D-02  0.185245D-03 -0.514697D-03 -0.206540D-01 -0.108399D-02
     24 -0.896967D-03 -0.411614D-03 -0.243595D-03 -0.202962D-01 -0.119061D-02
     25  0.810843D-03 -0.121279D-02 -0.784933D-03  0.712515D-03 -0.378186D-02
     26 -0.354201D-02 -0.850117D-03 -0.164053D-02  0.130686D-01 -0.138179D-02
     27  0.248392D-02 -0.171757D-02 -0.525680D-03 -0.118604D-01  0.432389D-02
     28  0.118768D-02  0.102638D-02  0.131658D-02  0.380311D-03 -0.331772D-02
     29 -0.316518D-02  0.138905D-02  0.460987D-03  0.127364D-01 -0.917645D-03
     30  0.286076D-02  0.521600D-03  0.157583D-02 -0.121926D-01  0.478804D-02
     31 -0.151878D-02  0.100045D-03 -0.709596D-03  0.419743D-04  0.371926D-02
     32 -0.579933D-03  0.318685D-03 -0.784531D-03 -0.124319D-03  0.277203D-02
     33  0.288552D-03  0.543007D-03 -0.971106D-03  0.420866D-04  0.330859D-02
     34 -0.116336D-01 -0.803000D-03  0.607013D-04  0.189318D-02  0.104682D-02
     35 -0.106948D-01 -0.584361D-03 -0.142332D-04  0.172689D-02  0.995873D-04
     36 -0.982630D-02 -0.360039D-03 -0.200809D-03  0.189329D-02  0.636148D-03
     37  0.102967D-01  0.693993D-04  0.851056D-03 -0.208903D-02 -0.325934D-02
     38  0.112356D-01  0.288039D-03  0.776121D-03 -0.225532D-02 -0.420657D-02
     39  0.121040D-01  0.512361D-03  0.589545D-03 -0.208892D-02 -0.367001D-02
                6             7             8             9            10 
      6  0.345032D+00
      7 -0.110800D-02  0.347594D+00
      8  0.957028D-03  0.419903D-02  0.348895D+00
      9  0.922015D-03  0.423167D-02  0.420055D-02  0.348089D+00
     10 -0.211308D-02  0.653606D-04  0.955040D-03  0.956668D-04  0.915888D-01
     11  0.320072D-02  0.888195D-03 -0.834180D-03  0.217472D-03 -0.490954D-01
     12 -0.105806D-02 -0.918512D-03 -0.123942D-03 -0.333493D-03 -0.414845D-01
     13 -0.536080D-02 -0.290943D-02  0.592458D-02 -0.292870D-02  0.160996D-01
     14 -0.105944D-02  0.860481D-03 -0.155889D-02 -0.319941D-03 -0.360416D-02
     15  0.337702D-02 -0.222319D-03 -0.167016D-02  0.926565D-03 -0.949383D-02
     16 -0.239338D-02 -0.129201D-03 -0.195038D-02  0.336342D-02 -0.494054D-02
     17  0.253402D-02  0.331609D-02 -0.175314D-02 -0.107336D-03 -0.136056D-02
     18  0.327995D-02 -0.848532D-03  0.817882D-03 -0.871126D-03  0.276684D-02
     19  0.381569D-02  0.213252D-02 -0.739989D-02 -0.744719D-02 -0.613691D-03
     20 -0.915434D-03 -0.743476D-02  0.241534D-02 -0.718621D-02  0.385008D-02
     21 -0.123572D-02 -0.758689D-02 -0.738231D-02  0.176283D-02 -0.117253D-02
     22 -0.109741D-02  0.639742D-02  0.626816D-02  0.490216D-03 -0.129943D-02
     23 -0.103014D-02  0.659073D-02  0.590144D-03  0.660722D-02  0.335695D-03
     24  0.373016D-03  0.497253D-03  0.624951D-02  0.636686D-02 -0.119124D-02
     25  0.261360D-02  0.118806D-02  0.137896D-03 -0.118236D-02  0.603739D-03
     26 -0.464872D-02 -0.289853D-03  0.486974D-03  0.922946D-03  0.244071D-02
     27  0.600678D-03 -0.946759D-03 -0.360531D-03  0.221007D-03 -0.165790D-02
     28  0.263621D-02  0.126315D-02  0.108393D-03 -0.133323D-02  0.113223D-02
     29 -0.462611D-02 -0.214769D-03  0.457471D-03  0.772076D-03  0.296921D-02
     30  0.623288D-03 -0.871675D-03 -0.390034D-03  0.701367D-04 -0.112941D-02
     31 -0.302865D-02 -0.295546D-03 -0.461977D-02  0.474227D-02  0.131408D-02
     32 -0.254182D-02  0.420371D-02  0.398551D-04 -0.417304D-02  0.182159D-02
     33 -0.347385D-02 -0.495490D-02  0.468465D-02  0.214235D-03  0.210270D-02
     34  0.353062D-02  0.637895D-03 -0.523713D-02  0.477246D-02 -0.141254D-02
     35  0.401745D-02  0.513716D-02 -0.577501D-03 -0.414285D-02 -0.905022D-03
     36  0.308542D-02 -0.402146D-02  0.406729D-02  0.244422D-03 -0.623914D-03
     37 -0.539857D-03 -0.210798D-03 -0.405662D-02  0.392654D-02 -0.107896D-02
     38 -0.530266D-04  0.428846D-02  0.603011D-03 -0.498877D-02 -0.571437D-03
     39 -0.985057D-03 -0.487015D-02  0.524780D-02 -0.601497D-03 -0.290329D-03
               11            12            13            14            15 
     11  0.902872D-01
     12 -0.401545D-01  0.797810D-01
     13 -0.135058D-01 -0.263775D-02  0.163824D+00
     14  0.233150D-02  0.118905D-02 -0.521699D-01  0.579752D-01
     15  0.106812D-01 -0.113766D-02 -0.556181D-01  0.305705D-02  0.616744D-01
     16  0.432552D-02  0.710158D-03 -0.488125D-01 -0.230822D-01  0.289045D-01
     17 -0.717716D-03  0.205304D-02 -0.476098D-01  0.276785D-01 -0.236307D-01
     18 -0.266340D-02 -0.936335D-04  0.356052D-01 -0.118378D-01 -0.125013D-01
     19  0.672776D-03 -0.363209D-04 -0.967039D-02  0.588188D-02 -0.348665D-02
     20 -0.218068D-02 -0.163330D-02  0.220275D-01 -0.452378D-02 -0.515341D-02
     21  0.804977D-03  0.337851D-03 -0.903962D-02 -0.388425D-02  0.572107D-02
     22  0.430978D-03  0.847268D-03 -0.488677D-02  0.444074D-04  0.320976D-02
     23 -0.367563D-03  0.217983D-04  0.641149D-02 -0.467470D-03 -0.452025D-03
     24  0.666349D-03  0.525758D-03 -0.493045D-02  0.306588D-02  0.290357D-03
     25 -0.112915D-02  0.125879D-03 -0.550557D-03  0.919573D-02 -0.855844D-02
     26 -0.291775D-02  0.111274D-03  0.932795D-02 -0.142493D-01 -0.642735D-02
     27  0.125667D-02  0.280565D-04 -0.899604D-02  0.611660D-02  0.152352D-01
     28 -0.649222D-03 -0.962040D-04 -0.107279D-02  0.888321D-02 -0.845621D-02
     29 -0.243782D-02 -0.110809D-03  0.880572D-02 -0.145618D-01 -0.632513D-02
     30  0.173660D-02 -0.194027D-03 -0.951828D-02  0.580408D-02  0.153374D-01
     31 -0.210453D-02  0.754671D-03 -0.528945D-03  0.113664D-01 -0.120554D-01
     32 -0.256401D-02  0.718527D-03  0.158954D-02  0.122446D-01 -0.136740D-01
     33 -0.264278D-02  0.521818D-03  0.405281D-02  0.106037D-01 -0.130030D-01
     34  0.934596D-03  0.511601D-03 -0.965037D-02 -0.114622D-01  0.109279D-02
     35  0.475118D-03  0.475457D-03 -0.753188D-02 -0.105840D-01 -0.525760D-03
     36  0.396345D-03  0.278748D-03 -0.506862D-02 -0.122250D-01  0.145174D-03
     37  0.205893D-02 -0.998929D-03  0.374250D-02  0.763641D-04  0.132769D-01
     38  0.159945D-02 -0.103507D-02  0.586099D-02  0.954580D-03  0.116584D-01
     39  0.152068D-02 -0.123178D-02  0.832426D-02 -0.686399D-03  0.123293D-01
               16            17            18            19            20 
     16  0.670281D-01
     17 -0.474242D-02  0.673069D-01
     18 -0.184026D-01 -0.182233D-01  0.251434D-01
     19 -0.406101D-02  0.142965D-01 -0.273662D-02  0.127096D+00
     20 -0.900574D-02 -0.863018D-02  0.467251D-02 -0.234368D-01  0.128132D+00
     21  0.142891D-01 -0.417570D-02 -0.271380D-02 -0.260337D-01 -0.238282D-01
     22  0.423960D-02 -0.185379D-02 -0.588223D-03 -0.484482D-01 -0.501109D-01
     23 -0.377707D-02 -0.385932D-02  0.201114D-02 -0.493163D-01  0.153962D-01
     24 -0.178829D-02  0.411715D-02 -0.586017D-03  0.161170D-01 -0.499672D-01
     25 -0.187050D-01  0.186707D-01 -0.239379D-04  0.561839D-02 -0.107797D-03
     26  0.180204D-01  0.521565D-03 -0.805623D-02 -0.179866D-02 -0.148819D-03
     27 -0.769782D-03 -0.190563D-01  0.833411D-02 -0.372619D-02 -0.225549D-04
     28 -0.181168D-01  0.187859D-01  0.244946D-04  0.573501D-02 -0.105868D-03
     29  0.186086D-01  0.636810D-03 -0.800779D-02 -0.168204D-02 -0.146891D-03
     30 -0.181644D-03 -0.189410D-01  0.838254D-02 -0.360957D-02 -0.206265D-04
     31 -0.375164D-02  0.516760D-02 -0.244443D-03 -0.308933D-03 -0.604770D-02
     32 -0.698341D-02  0.640071D-02  0.324012D-03  0.565165D-02  0.302760D-03
     33 -0.591477D-02  0.319006D-02  0.908163D-03 -0.637267D-02  0.654378D-02
     34  0.116655D-01  0.502907D-02  0.378737D-02  0.147265D-02 -0.874354D-02
     35  0.843369D-02  0.626218D-02  0.435583D-02  0.743323D-02 -0.239308D-02
     36  0.950234D-02  0.305153D-02  0.493998D-02 -0.459109D-02  0.384795D-02
     37 -0.239558D-02 -0.974514D-02 -0.521124D-02 -0.125620D-02 -0.406375D-02
     38 -0.562735D-02 -0.851203D-02 -0.464279D-02  0.470438D-02  0.228671D-02
     39 -0.455870D-02 -0.117227D-01 -0.405864D-02 -0.731995D-02  0.852773D-02
               21            22            23            24            25 
     21  0.127025D+00
     22  0.162741D-01  0.624749D-01
     23 -0.492940D-01  0.119081D-01  0.635706D-01
     24 -0.482205D-01  0.120948D-01  0.118441D-01  0.623505D-01
     25 -0.552485D-02 -0.182200D-02 -0.654373D-04  0.190530D-02  0.129047D-01
     26  0.391249D-02  0.356419D-03 -0.951900D-03 -0.147403D-02 -0.473729D-02
     27  0.169560D-02  0.149372D-02  0.941049D-03 -0.276128D-03 -0.440463D-02
     28 -0.564612D-02 -0.183442D-02 -0.116143D-03  0.197212D-02  0.107680D-01
     29  0.379122D-02  0.343998D-03 -0.100261D-02 -0.140721D-02 -0.687393D-02
     30  0.157434D-02  0.148130D-02  0.890343D-03 -0.209301D-03 -0.654126D-02
     31  0.628282D-02 -0.686760D-02  0.682509D-02 -0.349617D-04 -0.161383D-02
     32 -0.580373D-02  0.714931D-02  0.269467D-04 -0.733184D-02 -0.340008D-03
     33  0.171397D-03 -0.124094D-03 -0.685039D-02  0.677031D-02 -0.159188D-02
     34  0.734790D-02 -0.660214D-02  0.576249D-02  0.593608D-03  0.170635D-04
     35 -0.473866D-02  0.741478D-02 -0.103565D-02 -0.670327D-02  0.129089D-02
     36  0.123647D-02  0.141371D-03 -0.791299D-02  0.739888D-02  0.390153D-04
     37  0.474804D-02 -0.727447D-02  0.780405D-02 -0.757050D-04 -0.201541D-04
     38 -0.733851D-02  0.674245D-02  0.100591D-02 -0.737258D-02  0.125367D-02
     39 -0.136338D-02 -0.530959D-03 -0.587143D-02  0.672957D-02  0.179773D-05
               26            27            28            29            30 
     26  0.143173D-01
     27 -0.706474D-02  0.150329D-01
     28 -0.668889D-02 -0.641723D-02  0.128443D-01
     29  0.123657D-01 -0.907734D-02 -0.461267D-02  0.146270D-01
     30 -0.901634D-02  0.130203D-01 -0.434100D-02 -0.681608D-02  0.152205D-01
     31  0.112255D-02  0.439385D-03 -0.170967D-02  0.102672D-02  0.343551D-03
     32  0.310223D-03 -0.109990D-03 -0.374869D-03  0.275363D-03 -0.144850D-03
     33  0.892648D-03  0.623998D-03 -0.162009D-02  0.864435D-03  0.595785D-03
     34  0.531124D-03 -0.797382D-03  0.258318D-03  0.772379D-03 -0.556127D-03
     35 -0.281206D-03 -0.134676D-02  0.159311D-02  0.210215D-04 -0.104453D-02
     36  0.301219D-03 -0.612768D-03  0.347890D-03  0.610094D-03 -0.303894D-03
     37 -0.538233D-03  0.771001D-03 -0.249145D-03 -0.767223D-03  0.542010D-03
     38 -0.135056D-02  0.221626D-03  0.108565D-02 -0.151858D-02  0.536087D-04
     39 -0.768137D-03  0.955614D-03 -0.159573D-03 -0.929508D-03  0.794244D-03
               31            32            33            34            35 
     31  0.167315D-01
     32  0.395926D-02  0.167563D-01
     33  0.399809D-02  0.403100D-02  0.169154D-01
     34  0.527259D-02 -0.778942D-02 -0.804719D-02  0.181565D-01
     35 -0.749970D-02  0.500765D-02 -0.801427D-02  0.509454D-02  0.176019D-01
     36 -0.746087D-02 -0.771768D-02  0.487017D-02  0.483677D-02  0.457996D-02
     37  0.471772D-02 -0.787134D-02 -0.757090D-02  0.378675D-02 -0.880231D-02
     38 -0.805457D-02  0.492572D-02 -0.753799D-02 -0.927526D-02  0.370504D-02
     39 -0.801574D-02 -0.779960D-02  0.534646D-02 -0.953302D-02 -0.931688D-02
               36            37            38            39 
     36  0.171678D-01
     37 -0.850186D-02  0.172438D-01
     38 -0.875868D-02  0.465473D-02  0.176350D-01
     39  0.382918D-02  0.495517D-02  0.517131D-02  0.183174D-01
 Leave Link  716 at Sun May 22 09:08:32 2022, MaxMem=   939524096 cpu:         0.1
 (Enter /Local/ce_dana/g09/l103.exe)

 GradGradGradGradGradGradGradGradGradGradGradGradGradGradGradGradGradGrad
 Berny optimization.
 Red2BG is reusing G-inverse.
 Internal  Forces:  Max     0.012900627 RMS     0.004194227
 Search for a local minimum.
 Step number   1 out of a maximum of   49
 All quantities printed in internal units (Hartrees-Bohrs-Radians)
 RMS Force = .41942D-02 SwitMx=.10000D-02 MixMth= 1
 Mixed Optimization -- RFO/linear search
 Second derivative matrix not updated -- analytic derivatives used.
 ITU=  0
     Eigenvalues ---    0.00057   0.00298   0.00631   0.04834   0.05174
     Eigenvalues ---    0.05544   0.05645   0.09306   0.11744   0.12797
     Eigenvalues ---    0.14167   0.14921   0.17082   0.19641   0.24868
     Eigenvalues ---    0.32805   0.33867   0.34188   0.34541   0.34702
     Eigenvalues ---    0.35820   0.36709   0.37116   0.37401
 RFO step:  Lambda=-2.21131091D-03 EMin= 5.74814215D-04
 Linear search not attempted -- first point.
 Iteration  1 RMS(Cart)=  0.01786480 RMS(Int)=  0.00016605
 Iteration  2 RMS(Cart)=  0.00017141 RMS(Int)=  0.00005002
 Iteration  3 RMS(Cart)=  0.00000003 RMS(Int)=  0.00005002
 ITry= 1 IFail=0 DXMaxC= 4.01D-02 DCOld= 1.00D+10 DXMaxT= 3.00D-01 DXLimC= 3.00D+00 Rises=F
 Variable       Old X    -DE/DX   Delta X   Delta X   Delta X     New X
                                 (Linear)    (Quad)   (Total)
    R1        2.81709   0.01213   0.00000   0.03109   0.03109   2.84818
    R2        2.04886  -0.00724   0.00000  -0.02032  -0.02032   2.02854
    R3        2.04900  -0.00713   0.00000  -0.01855  -0.01855   2.03045
    R4        2.87154   0.01290   0.00000   0.04323   0.04323   2.91477
    R5        2.06929  -0.00326   0.00000  -0.01004  -0.01004   2.05925
    R6        2.06985  -0.00673   0.00000  -0.01996  -0.01996   2.04990
    R7        2.06986  -0.00712   0.00000  -0.02042  -0.02042   2.04943
    R8        2.06873  -0.00656   0.00000  -0.02039  -0.02039   2.04834
    R9        2.06984  -0.00787   0.00000  -0.02234  -0.02234   2.04751
    A1        2.08927   0.00334   0.00000   0.01865   0.01865   2.10792
    A2        2.10728  -0.00180   0.00000  -0.01467  -0.01467   2.09261
    A3        2.06693  -0.00154   0.00000  -0.00511  -0.00511   2.06182
    A4        1.95472   0.00197   0.00000   0.00103   0.00102   1.95574
    A5        1.90378   0.00130   0.00000   0.01505   0.01507   1.91885
    A6        1.90385  -0.00026   0.00000   0.01041   0.01037   1.91422
    A7        1.91497  -0.00224   0.00000  -0.01505  -0.01507   1.89990
    A8        1.90818   0.00017   0.00000   0.00359   0.00353   1.91171
    A9        1.87667  -0.00105   0.00000  -0.01561  -0.01571   1.86095
   A10        1.94142  -0.00091   0.00000  -0.01328  -0.01336   1.92806
   A11        1.92351   0.00339   0.00000   0.01196   0.01200   1.93551
   A12        1.94075  -0.00161   0.00000  -0.01305  -0.01313   1.92762
   A13        1.88409  -0.00093   0.00000   0.00462   0.00466   1.88875
   A14        1.88704   0.00051   0.00000   0.00271   0.00252   1.88957
   A15        1.88504  -0.00048   0.00000   0.00797   0.00801   1.89305
    D1        2.68672   0.00081   0.00000   0.01163   0.01164   2.69836
    D2       -1.47321   0.00017   0.00000   0.00366   0.00365  -1.46956
    D3        0.57198  -0.00051   0.00000  -0.00065  -0.00065   0.57133
    D4       -0.67013   0.00063   0.00000   0.00498   0.00499  -0.66514
    D5        1.45312  -0.00001   0.00000  -0.00299  -0.00300   1.45012
    D6       -2.78487  -0.00069   0.00000  -0.00731  -0.00731  -2.79218
    D7        1.06299  -0.00047   0.00000  -0.01950  -0.01945   1.04355
    D8       -3.13113   0.00002   0.00000  -0.01444  -0.01445   3.13761
    D9       -1.04132   0.00060   0.00000  -0.00503  -0.00510  -1.04642
   D10       -1.05382  -0.00188   0.00000  -0.02886  -0.02877  -1.08260
   D11        1.03524  -0.00140   0.00000  -0.02380  -0.02377   1.01146
   D12        3.12505  -0.00081   0.00000  -0.01440  -0.01443   3.11062
   D13       -3.10796   0.00061   0.00000  -0.00326  -0.00321  -3.11117
   D14       -1.01890   0.00109   0.00000   0.00181   0.00179  -1.01711
   D15        1.07092   0.00167   0.00000   0.01121   0.01113   1.08205
         Item               Value     Threshold  Converged?
 Maximum Force            0.012901     0.000450     NO 
 RMS     Force            0.004194     0.000300     NO 
 Maximum Displacement     0.040139     0.001800     NO 
 RMS     Displacement     0.017812     0.001200     NO 
 Predicted change in Energy=-1.116721D-03
 Lowest energy point so far.  Saving SCF results.
 GradGradGradGradGradGradGradGradGradGradGradGradGradGradGradGradGradGrad

 Leave Link  103 at Sun May 22 09:08:32 2022, MaxMem=   939524096 cpu:         0.0
 (Enter /Local/ce_dana/g09/l202.exe)
                          Input orientation:                          
 ---------------------------------------------------------------------
 Center     Atomic      Atomic             Coordinates (Angstroms)
 Number     Number       Type             X           Y           Z
 ---------------------------------------------------------------------
      1          6           0        1.395547    0.277829   -0.199596
      2          6           0        0.181508   -0.348559    0.437095
      3          6           0       -0.845741    0.709142    0.890002
      4          1           0        2.340470   -0.231515   -0.199134
      5          1           0        1.284112    1.138288   -0.833374
      6          1           0       -0.299005   -1.027300   -0.267090
      7          1           0        0.484162   -0.948239    1.288850
      8          1           0       -1.182019    1.298036    0.043662
      9          1           0       -1.711857    0.238650    1.340993
     10          1           0       -0.402790    1.380318    1.616140
 ---------------------------------------------------------------------
                    Distance matrix (angstroms):
                    1          2          3          4          5
     1  C    0.000000
     2  C    1.507192   0.000000
     3  C    2.529156   1.542432   0.000000
     4  H    1.073457   2.253798   3.496140   0.000000
     5  H    1.074468   2.245115   2.773169   1.842420   0.000000
     6  H    2.139959   1.089706   2.157085   2.757666   2.741662
     7  H    2.132918   1.084759   2.162090   2.484687   3.081777
     8  H    2.782776   2.173768   1.084514   3.847909   2.622310
     9  H    3.468560   2.178686   1.083934   4.360550   3.809599
    10  H    2.783234   2.172686   1.083493   3.663154   2.984013
                    6          7          8          9         10
     6  H    0.000000
     7  H    1.743717   0.000000
     8  H    2.506685   3.061438   0.000000
     9  H    2.486907   2.496782   1.756728   0.000000
    10  H    3.058423   2.513161   1.756888   1.758627   0.000000
 Stoichiometry    C3H7(2)
 Framework group  C1[X(C3H7)]
 Deg. of freedom    24
 Full point group                 C1      NOp   1
 RotChk:  IX=0 Diff= 4.85D-03
 Largest Abelian subgroup         C1      NOp   1
 Largest concise Abelian subgroup C1      NOp   1
                         Standard orientation:                         
 ---------------------------------------------------------------------
 Center     Atomic      Atomic             Coordinates (Angstroms)
[...]
 ! A9    A(6,2,7)              106.6047         -DE/DX =    0.0                 !
 ! A10   A(2,3,8)              110.4348         -DE/DX =    0.0                 !
 ! A11   A(2,3,9)              110.9094         -DE/DX =    0.0                 !
 ! A12   A(2,3,10)             110.426          -DE/DX =    0.0                 !
 ! A13   A(8,3,9)              108.2323         -DE/DX =    0.0                 !
 ! A14   A(8,3,10)             108.2676         -DE/DX =    0.0                 !
 ! A15   A(9,3,10)             108.4878         -DE/DX =    0.0                 !
 ! D1    D(4,1,2,3)            155.1803         -DE/DX =    0.0                 !
 ! D2    D(4,1,2,6)            -83.6437         -DE/DX =    0.0                 !
 ! D3    D(4,1,2,7)             33.2915         -DE/DX =    0.0                 !
 ! D4    D(5,1,2,3)            -37.7435         -DE/DX =    0.0                 !
 ! D5    D(5,1,2,6)             83.4325         -DE/DX =    0.0                 !
 ! D6    D(5,1,2,7)           -159.6323         -DE/DX =    0.0                 !
 ! D7    D(1,2,3,8)             59.2873         -DE/DX =    0.0                 !
 ! D8    D(1,2,3,9)            179.2718         -DE/DX =    0.0                 !
 ! D9    D(1,2,3,10)           -60.4291         -DE/DX =    0.0                 !
 ! D10   D(6,2,3,8)            -62.5394         -DE/DX =    0.0                 !
 ! D11   D(6,2,3,9)             57.4451         -DE/DX =    0.0                 !
 ! D12   D(6,2,3,10)           177.7442         -DE/DX =    0.0                 !
 ! D13   D(7,2,3,8)           -178.7277         -DE/DX =    0.0                 !
 ! D14   D(7,2,3,9)            -58.7432         -DE/DX =    0.0                 !
 ! D15   D(7,2,3,10)            61.5559         -DE/DX =    0.0                 !
 --------------------------------------------------------------------------------
 Lowest energy point so far.  Saving SCF results.
 GradGradGradGradGradGradGradGradGradGradGradGradGradGradGradGradGradGrad

 Largest change from initial coordinates is atom    4       0.017 Angstoms.
 Leave Link  103 at Sun May 22 09:08:34 2022, MaxMem=   939524096 cpu:         0.1
 (Enter /Local/ce_dana/g09/l202.exe)
                          Input orientation:                          
 ---------------------------------------------------------------------
 Center     Atomic      Atomic             Coordinates (Angstroms)
 Number     Number       Type             X           Y           Z
 ---------------------------------------------------------------------
      1          6           0        1.396256    0.277891   -0.200447
      2          6           0        0.182768   -0.348823    0.438987
      3          6           0       -0.846732    0.709562    0.890057
      4          1           0        2.340054   -0.234161   -0.207278
      5          1           0        1.283210    1.140203   -0.831797
      6          1           0       -0.297668   -1.030005   -0.262994
      7          1           0        0.486429   -0.946306    1.292311
      8          1           0       -1.177415    1.301297    0.043173
      9          1           0       -1.716082    0.238722    1.335014
     10          1           0       -0.406432    1.378271    1.620520
 ---------------------------------------------------------------------
                    Distance matrix (angstroms):
                    1          2          3          4          5
     1  C    0.000000
     2  C    1.508045   0.000000
     3  C    2.531112   1.543862   0.000000
     4  H    1.073778   2.254926   3.500051   0.000000
     5  H    1.074692   2.245676   2.772523   1.842775   0.000000
     6  H    2.141000   1.089773   2.158029   2.755731   2.744543
     7  H    2.134191   1.085061   2.163567   2.488342   3.082242
     8  H    2.780375   2.174778   1.084765   3.846159   2.616524
     9  H    3.470709   2.180299   1.084180   4.365149   3.808345
    10  H    2.788627   2.173943   1.083795   3.672053   2.987545
                    6          7          8          9         10
     6  H    0.000000
     7  H    1.743785   0.000000
     8  H    2.510510   3.062750   0.000000
     9  H    2.484995   2.501433   1.757294   0.000000
    10  H    3.059289   2.511688   1.757374   1.759337   0.000000
 Stoichiometry    C3H7(2)
 Framework group  C1[X(C3H7)]
 Deg. of freedom    24
 Full point group                 C1      NOp   1
 RotChk:  IX=0 Diff= 1.31D-15
 Largest Abelian subgroup         C1      NOp   1
 Largest concise Abelian subgroup C1      NOp   1
                         Standard orientation:                         
 ---------------------------------------------------------------------
 Center     Atomic      Atomic             Coordinates (Angstroms)
 Number     Number       Type             X           Y           Z
 ---------------------------------------------------------------------
      1          6           0        1.304292   -0.298355   -0.039425
      2          6           0        0.075467    0.569717    0.063719
      3          6           0       -1.226407   -0.252972   -0.044982
      4          1           0        2.239138    0.110101   -0.374427
      5          1           0        1.310595   -1.272854    0.413648
      6          1           0        0.075823    1.103645    1.013733
      7          1           0        0.094054    1.324109   -0.715964
      8          1           0       -1.270585   -0.997834    0.742383
      9          1           0       -2.097067    0.386910    0.044176
     10          1           0       -1.272069   -0.764416   -0.999420
 ---------------------------------------------------------------------
 Rotational constants (GHZ):     32.3259610      8.9433842      7.7596599
 Leave Link  202 at Sun May 22 09:08:34 2022, MaxMem=   939524096 cpu:         0.0
 (Enter /Local/ce_dana/g09/l601.exe)
 Copying SCF densities to generalized density rwf, IOpCl= 1 IROHF=0.

 **********************************************************************

            Population analysis using the SCF density.

 **********************************************************************

 Orbital symmetries:
 Alpha Orbitals:
       Occupied  (A) (A) (A) (A) (A) (A) (A) (A) (A) (A) (A) (A)
                 (A)
       Virtual   (A) (A) (A) (A) (A) (A) (A) (A) (A) (A) (A) (A)
                 (A) (A) (A) (A) (A) (A) (A) (A) (A) (A) (A) (A)
                 (A) (A) (A) (A)
 Beta  Orbitals:
       Occupied  (A) (A) (A) (A) (A) (A) (A) (A) (A) (A) (A) (A)
       Virtual   (A) (A) (A) (A) (A) (A) (A) (A) (A) (A) (A) (A)
                 (A) (A) (A) (A) (A) (A) (A) (A) (A) (A) (A) (A)
                 (A) (A) (A) (A) (A)
 The electronic state is 2-A.
 Alpha  occ. eigenvalues --  -11.16644 -11.16379 -11.15265  -1.06047  -0.92920
 Alpha  occ. eigenvalues --   -0.80518  -0.62899  -0.60657  -0.56288  -0.50787
 Alpha  occ. eigenvalues --   -0.49258  -0.47986  -0.35027
 Alpha virt. eigenvalues --    0.27857   0.31437   0.32304   0.33919   0.35623
 Alpha virt. eigenvalues --    0.36759   0.39019   0.43418   0.46683   0.88625
 Alpha virt. eigenvalues --    0.91109   0.96585   0.98622   1.00905   1.06257
 Alpha virt. eigenvalues --    1.07227   1.18179   1.23049   1.31404   1.36083
 Alpha virt. eigenvalues --    1.36963   1.38721   1.40418   1.43565   1.49859
 Alpha virt. eigenvalues --    1.76953   2.05109   2.39377
  Beta  occ. eigenvalues --  -11.16737 -11.15173 -11.14158  -1.04107  -0.88596
  Beta  occ. eigenvalues --   -0.76901  -0.61779  -0.59358  -0.55322  -0.49267
  Beta  occ. eigenvalues --   -0.48182  -0.47618
  Beta virt. eigenvalues --    0.16806   0.28361   0.32704   0.33543   0.34386
  Beta virt. eigenvalues --    0.35843   0.37251   0.40025   0.44421   0.47969
  Beta virt. eigenvalues --    0.89172   0.93334   0.97410   1.02246   1.06056
  Beta virt. eigenvalues --    1.07242   1.10485   1.19562   1.23997   1.32438
  Beta virt. eigenvalues --    1.36550   1.37031   1.39348   1.41131   1.43967
  Beta virt. eigenvalues --    1.50247   1.80556   2.06114   2.39578
          Condensed to atoms (all electrons):
               1          2          3          4          5          6
     1  C    5.522596   0.252787  -0.081634   0.381874   0.379001  -0.051473
     2  C    0.252787   5.438030   0.249549  -0.039649  -0.044118   0.379622
     3  C   -0.081634   0.249549   5.357855   0.002381  -0.001102  -0.045387
     4  H    0.381874  -0.039649   0.002381   0.482427  -0.023706   0.000719
     5  H    0.379001  -0.044118  -0.001102  -0.023706   0.489910   0.000567
     6  H   -0.051473   0.379622  -0.045387   0.000719   0.000567   0.527991
     7  H   -0.044879   0.385575  -0.039091  -0.001350   0.002306  -0.029207
     8  H   -0.001192  -0.045593   0.378084  -0.000009   0.002025  -0.002012
     9  H    0.003449  -0.040191   0.378903  -0.000041  -0.000028  -0.001090
    10  H    0.000843  -0.045126   0.376981  -0.000026   0.000205   0.003185
               7          8          9         10
     1  C   -0.044879  -0.001192   0.003449   0.000843
     2  C    0.385575  -0.045593  -0.040191  -0.045126
     3  C   -0.039091   0.378084   0.378903   0.376981
     4  H   -0.001350  -0.000009  -0.000041  -0.000026
     5  H    0.002306   0.002025  -0.000028   0.000205
     6  H   -0.029207  -0.002012  -0.001090   0.003185
     7  H    0.511315   0.003019  -0.001704  -0.002041
     8  H    0.003019   0.520844  -0.026363  -0.026978
     9  H   -0.001704  -0.026363   0.512485  -0.025432
    10  H   -0.002041  -0.026978  -0.025432   0.513245
          Atomic-Atomic Spin Densities.
               1          2          3          4          5          6
     1  C    1.471264  -0.069006  -0.016066  -0.022508  -0.023274  -0.025305
     2  C   -0.069006  -0.185013   0.017842   0.002015   0.002515   0.018336
     3  C   -0.016066   0.017842   0.041653   0.000010   0.001103  -0.009610
     4  H   -0.022508   0.002015   0.000010  -0.093127   0.003390  -0.000254
     5  H   -0.023274   0.002515   0.001103   0.003390  -0.092073  -0.000247
     6  H   -0.025305   0.018336  -0.009610  -0.000254  -0.000247   0.090378
     7  H   -0.009555   0.009960   0.002968   0.000665   0.000007  -0.008396
     8  H   -0.000300   0.001241  -0.000462   0.000010  -0.000008  -0.000541
     9  H    0.000394   0.000789  -0.003673   0.000000  -0.000024   0.001216
    10  H    0.003216  -0.000393  -0.004833  -0.000017  -0.000063   0.000457
               7          8          9         10
     1  C   -0.009555  -0.000300   0.000394   0.003216
     2  C    0.009960   0.001241   0.000789  -0.000393
     3  C    0.002968  -0.000462  -0.003673  -0.004833
     4  H    0.000665   0.000010   0.000000  -0.000017
     5  H    0.000007  -0.000008  -0.000024  -0.000063
     6  H   -0.008396  -0.000541   0.001216   0.000457
     7  H    0.027292   0.000089  -0.000370  -0.000557
     8  H    0.000089  -0.003054   0.000089  -0.000059
     9  H   -0.000370   0.000089  -0.001250   0.001445
    10  H   -0.000557  -0.000059   0.001445  -0.000546
 Mulliken charges and spin densities:
               1          2
     1  C   -0.361373   1.308861
     2  C   -0.490886  -0.201714
     3  C   -0.576540   0.028934
     4  H    0.197381  -0.109815
     5  H    0.194940  -0.108674
     6  H    0.217086   0.066033
     7  H    0.216057   0.022104
     8  H    0.198177  -0.002995
     9  H    0.200013  -0.001384
    10  H    0.205145  -0.001350
 Sum of Mulliken charges =  -0.00000   1.00000
 Mulliken charges and spin densities with hydrogens summed into heavy atoms:
               1          2
     1  C    0.030948   1.090372
     2  C   -0.057743  -0.113577
     3  C    0.026795   0.023205
 Electronic spatial extent (au):  <R**2>=            212.5947
 Charge=             -0.0000 electrons
 Dipole moment (field-independent basis, Debye):
    X=             -0.0497    Y=              0.1291    Z=              0.1272  Tot=              0.1880
 Quadrupole moment (field-independent basis, Debye-Ang):
   XX=            -21.0812   YY=            -20.9124   ZZ=            -21.6130
   XY=             -0.0105   XZ=             -0.1209   YZ=             -0.5464
 Traceless Quadrupole moment (field-independent basis, Debye-Ang):
   XX=              0.1210   YY=              0.2898   ZZ=             -0.4108
   XY=             -0.0105   XZ=             -0.1209   YZ=             -0.5464
 Octapole moment (field-independent basis, Debye-Ang**2):
  XXX=              1.1628  YYY=             -0.3787  ZZZ=              0.2016  XYY=              0.0019
  XXY=              0.9823  XXZ=             -0.7414  XZZ=             -1.0232  YZZ=              0.2940
  YYZ=              0.6017  XYZ=             -0.7507
 Hexadecapole moment (field-independent basis, Debye-Ang**3):
 XXXX=           -183.8960 YYYY=            -63.9487 ZZZZ=            -36.3186 XXXY=             -0.5830
 XXXZ=             -2.9705 YYYX=             -0.8901 YYYZ=             -2.0037 ZZZX=              0.4708
 ZZZY=             -0.0024 XXYY=            -42.0664 XXZZ=            -39.3538 YYZZ=            -15.4242
 XXYZ=             -1.0656 YYXZ=              0.5248 ZZXY=              1.1407
 N-N= 7.576607328157D+01 E-N=-4.229912117085D+02  KE= 1.167728092015D+02
                          Isotropic Fermi Contact Couplings
        Atom                 a.u.       MegaHertz       Gauss      10(-4) cm-1
     1  C(13)              0.23788     267.42672      95.42450      89.20395
     2  C(13)             -0.05741     -64.54176     -23.03010     -21.52881
     3  C(13)              0.01915      21.52954       7.68227       7.18148
     4  H(1)              -0.02691    -120.29742     -42.92511     -40.12690
     5  H(1)              -0.02675    -119.59087     -42.67299     -39.89122
     6  H(1)               0.02549     113.91579      40.64798      37.99822
     7  H(1)               0.00790      35.30848      12.59894      11.77764
     8  H(1)              -0.00091      -4.08762      -1.45856      -1.36348
     9  H(1)              -0.00079      -3.53928      -1.26290      -1.18058
    10  H(1)              -0.00113      -5.06143      -1.80604      -1.68831
 --------------------------------------------------------
       Center         ----  Spin Dipole Couplings  ----
                      3XX-RR        3YY-RR        3ZZ-RR
 --------------------------------------------------------
     1   Atom       -0.393214     -0.300491      0.693705
     2   Atom       -0.000135     -0.002051      0.002185
     3   Atom        0.025542     -0.011270     -0.014272
     4   Atom        0.055920     -0.046931     -0.008988
     5   Atom       -0.076409      0.072708      0.003701
     6   Atom        0.007530      0.004070     -0.011600
     7   Atom        0.002943      0.007532     -0.010475
     8   Atom        0.007840     -0.004825     -0.003014
     9   Atom        0.006359     -0.002538     -0.003821
    10   Atom        0.011360     -0.006942     -0.004418
 --------------------------------------------------------
                        XY            XZ            YZ
 --------------------------------------------------------
     1   Atom        0.126654      0.316879      0.450870
     2   Atom        0.004575      0.000370     -0.000806
     3   Atom        0.008124     -0.004798     -0.000834
     4   Atom        0.063939     -0.033800     -0.000542
     5   Atom        0.005752      0.014740     -0.045801
     6   Atom       -0.013019     -0.008226      0.002217
     7   Atom       -0.014729      0.006267      0.000938
     8   Atom        0.004099     -0.004983     -0.002195
     9   Atom       -0.003081     -0.000535      0.000464
    10   Atom        0.002650      0.005094      0.002293
 --------------------------------------------------------


 ---------------------------------------------------------------------------------
              Anisotropic Spin Dipole Couplings in Principal Axis System
 ---------------------------------------------------------------------------------

       Atom             a.u.   MegaHertz   Gauss  10(-4) cm-1        Axes

              Baa    -0.4818   -64.649   -23.068   -21.565  0.8523 -0.5223 -0.0294
     1 C(13)  Bbb    -0.4724   -63.387   -22.618   -21.144  0.4619  0.7778 -0.4263
              Bcc     0.9541   128.036    45.687    42.708  0.2455  0.3497  0.9041
 
              Baa    -0.0059    -0.786    -0.281    -0.262 -0.6250  0.7734  0.1062
     2 C(13)  Bbb     0.0022     0.301     0.107     0.100  0.1917  0.0201  0.9813
              Bcc     0.0036     0.485     0.173     0.162  0.7567  0.6337 -0.1608
 
              Baa    -0.0149    -1.993    -0.711    -0.665  0.1309 -0.0668  0.9891
     3 C(13)  Bbb    -0.0130    -1.740    -0.621    -0.580 -0.1946  0.9766  0.0917
              Bcc     0.0278     3.733     1.332     1.245  0.9721  0.2045 -0.1149
 
              Baa    -0.0806   -42.994   -15.341   -14.341 -0.4568  0.8646 -0.2091
     4 H(1)   Bbb    -0.0151    -8.048    -2.872    -2.685  0.1637  0.3128  0.9356
              Bcc     0.0957    51.042    18.213    17.026  0.8744  0.3931 -0.2844
 
              Baa    -0.0805   -42.935   -15.320   -14.321  0.9685 -0.1040 -0.2262
     5 H(1)   Bbb    -0.0151    -8.052    -2.873    -2.686  0.2488  0.4351  0.8653
              Bcc     0.0956    50.986    18.193    17.007 -0.0084  0.8944 -0.4473
 
              Baa    -0.0151    -8.070    -2.879    -2.692  0.4294  0.1892  0.8831
     6 H(1)   Bbb    -0.0056    -3.012    -1.075    -1.005  0.5007  0.7639 -0.4072
              Bcc     0.0208    11.081     3.954     3.696  0.7516 -0.6170 -0.2333
 
              Baa    -0.0156    -8.339    -2.976    -2.782 -0.5525 -0.3814  0.7411
     7 H(1)   Bbb    -0.0049    -2.610    -0.931    -0.870  0.5074  0.5516  0.6621
              Bcc     0.0205    10.949     3.907     3.652 -0.6613  0.7418 -0.1112
 
              Baa    -0.0064    -3.396    -1.212    -1.133 -0.1104  0.8987  0.4244
     8 H(1)   Bbb    -0.0048    -2.536    -0.905    -0.846  0.4395 -0.3389  0.8319
              Bcc     0.0111     5.932     2.117     1.979  0.8914  0.2784 -0.3576
 
              Baa    -0.0040    -2.142    -0.764    -0.715 -0.0962 -0.4755  0.8744
     9 H(1)   Bbb    -0.0033    -1.784    -0.637    -0.595  0.2892  0.8273  0.4817
              Bcc     0.0074     3.927     1.401     1.310  0.9524 -0.2992 -0.0580
 
              Baa    -0.0083    -4.431    -1.581    -1.478  0.0232  0.8474 -0.5305
    10 H(1)   Bbb    -0.0051    -2.700    -0.964    -0.901 -0.3289  0.5075  0.7964
              Bcc     0.0134     7.131     2.545     2.379  0.9441  0.1560  0.2905
 

 ---------------------------------------------------------------------------------

 No NMR shielding tensors so no spin-rotation constants.
 Leave Link  601 at Sun May 22 09:08:34 2022, MaxMem=   939524096 cpu:         2.5
 (Enter /Local/ce_dana/g09/l9999.exe)

 Test job not archived.
 1\1\GINC-TECH-WN051\FOpt\UHF\3-21G\C3H7(2)\ALONGD\22-May-2022\0\\#P op
 t=(calcfc) guess=mix uhf/3-21g IOp(2/9=2000) scf=xqc\\nC3H7\\0,2\C,1.3
 962556138,0.2778911944,-0.2004465205\C,0.1827675485,-0.3488227655,0.43
 89869902\C,-0.8467316392,0.7095615901,0.890057096\H,2.3400540645,-0.23
 4160986,-0.2072780728\H,1.2832098134,1.1402027658,-0.8317967894\H,-0.2
 976681839,-1.0300051135,-0.262994152\H,0.486428525,-0.9463059664,1.292
 3110412\H,-1.1774146938,1.3012965037,0.043172573\H,-1.7160820364,0.238
 7221676,1.3350144932\H,-0.4064322718,1.3782706998,1.6205202109\\Versio
 n=ES64L-G09RevD.01\State=2-A\HF=-116.9824891\S2=0.763253\S2-1=0.\S2A=0
 .750129\RMSD=6.095e-09\RMSF=1.758e-05\Dipole=-0.0446893,-0.0541473,-0.
 0232564\Quadrupole=0.0493788,0.0503071,-0.099686,-0.1928733,-0.0974404
 ,-0.439203\PG=C01 [X(C3H7)]\\@


 A DANDELION FROM A LOVER MEANS MORE THAN AN ORCHID FROM A FRIEND.
 Job cpu time:       0 days  0 hours  0 minutes 24.1 seconds.
 File lengths (MBytes):  RWF=      8 Int=      0 D2E=      0 Chk=      1 Scr=      1
 Normal termination of Gaussian 09 at Sun May 22 09:08:34 2022.
