 Entering Gaussian System, Link 0=/Local/ce_dana/g09/g09
 Initial command:
 /Local/ce_dana/g09/l1.exe "/storage/ce_dana/alongd/scratch/g09/Gau-147397.inp" -scrdir="/storage/ce_dana/alongd/scratch/g09/"
 Entering Link 1 = /Local/ce_dana/g09/l1.exe PID=    147398.
  
 Copyright (c) 1988,1990,1992,1993,1995,1998,2003,2009,2013,
            Gaussian, Inc.  All Rights Reserved.
  
 This is part of the Gaussian(R) 09 program.  It is based on
 the Gaussian(R) 03 system (copyright 2003, Gaussian, Inc.),
 the Gaussian(R) 98 system (copyright 1998, Gaussian, Inc.),
 the Gaussian(R) 94 system (copyright 1995, Gaussian, Inc.),
 the Gaussian 92(TM) system (copyright 1992, Gaussian, Inc.),
 the Gaussian 90(TM) system (copyright 1990, Gaussian, Inc.),
 the Gaussian 88(TM) system (copyright 1988, Gaussian, Inc.),
 the Gaussian 86(TM) system (copyright 1986, Carnegie Mellon
 University), and the Gaussian 82(TM) system (copyright 1983,
 Carnegie Mellon University). Gaussian is a federally registered
 trademark of Gaussian, Inc.
  
 This software contains proprietary and confidential information,
 including trade secrets, belonging to Gaussian, Inc.
  
 This software is provided under written license and may be
 used, copied, transmitted, or stored only in accord with that
 written license.
  
 The following legend is applicable only to US Government
 contracts under FAR:
  
                    RESTRICTED RIGHTS LEGEND
  
 Use, reproduction and disclosure by the US Government is
 subject to restrictions as set forth in subparagraphs (a)
 and (c) of the Commercial Computer Software - Restricted
 Rights clause in FAR 52.227-19.
  
 Gaussian, Inc.
 340 Quinnipiac St., Bldg. 40, Wallingford CT 06492
  
  
 ---------------------------------------------------------------
 Warning -- This program may not be used in any manner that
 competes with the business of Gaussian, Inc. or will provide
 assistance to any competitor of Gaussian, Inc.  The licensee
 of this program is prohibited from giving any competitor of
 Gaussian, Inc. access to this program.  By using this program,
 the user acknowledges that Gaussian, Inc. is engaged in the
 business of creating and licensing software in the field of
 computational chemistry and represents and warrants to the
 licensee that it is not a competitor of Gaussian, Inc. and that
 it will not use this program in any manner prohibited above.
 ---------------------------------------------------------------
  

 Cite this work as:
 Gaussian 09, Revision D.01,
 M. J. Frisch, G. W. Trucks, H. B. Schlegel, G. E. Scuseria, 
 M. A. Robb, J. R. Cheeseman, G. Scalmani, V. Barone, B. Mennucci, 
 G. A. Petersson, H. Nakatsuji, M. Caricato, X. Li, H. P. Hratchian, 
 A. F. Izmaylov, J. Bloino, G. Zheng, J. L. Sonnenberg, M. Hada, 
 M. Ehara, K. Toyota, R. Fukuda, J. Hasegawa, M. Ishida, T. Nakajima, 
 Y. Honda, O. Kitao, H. Nakai, T. Vreven, J. A. Montgomery, Jr., 
 J. E. Peralta, F. Ogliaro, M. Bearpark, J. J. Heyd, E. Brothers, 
 K. N. Kudin, V. N. Staroverov, T. Keith, R. Kobayashi, J. Normand, 
 K. Raghavachari, A. Rendell, J. C. Burant, S. S. Iyengar, J. Tomasi, 
 M. Cossi, N. Rega, J. M. Millam, M. Klene, J. E. Knox, J. B. Cross, 
 V. Bakken, C. Adamo, J. Jaramillo, R. Gomperts, R. E. Stratmann, 
 O. Yazyev, A. J. Austin, R. Cammi, C. Pomelli, J. W. Ochterski, 
 R. L. Martin, K. Morokuma, V. G. Zakrzewski, G. A. Voth, 
 P. Salvador, J. J. Dannenberg, S. Dapprich, A. D. Daniels, 
 O. Farkas, J. B. Foresman, J. V. Ortiz, J. Cioslowski, 
 and D. J. Fox, Gaussian, Inc., Wallingford CT, 2013.
 
 ******************************************
 Gaussian 09:  ES64L-G09RevD.01 24-Apr-2013
                22-May-2022 
 ******************************************
 %chk=check.chk
 %mem=7168mb
 %NProcShared=10
 Will use up to   10 processors via shared memory.
 ----------------------------------------------------------------------
 #P opt=(ts, calcfc, noeigentest, maxcycles=100) guess=read uhf/3-21g I
 Op(2/9=2000) scf=xqc
 ----------------------------------------------------------------------
 1/5=1,6=100,10=4,11=1,18=20,38=1/1,3;
 2/9=2000,12=2,17=6,18=5,40=1/2;
 3/5=5,11=2,16=1,25=1,30=1,71=2,116=2,140=1/1,2,3;
 4/5=1/1;
 5/5=2,8=3,13=1,38=6/2,8;
 8/6=4,10=90,11=11/1;
 11/6=1,8=1,9=11,15=111,16=1/1,2,10;
 10/6=1,13=1/2;
 6/7=2,8=2,9=2,10=2,28=1/1;
 7/10=1,18=20,25=1/1,2,3,16;
 1/5=1,6=100,10=4,11=1,18=20/3(2);
 2/9=2000/2;
 99//99;
 2/9=2000/2;
 3/5=5,11=2,16=1,25=1,30=1,71=1,116=2/1,2,3;
 4/5=5,16=3,69=1/1;
 5/5=2,8=3,13=1,38=5/2,8;
 7//1,2,3,16;
 1/5=1,6=100,11=1,18=20/3(-5);
 2/9=2000/2;
 6/7=2,8=2,9=2,10=2,19=2,28=1/1;
 99/9=1/99;
 Leave Link    1 at Sun May 22 09:31:26 2022, MaxMem=   939524096 cpu:         0.0
 (Enter /Local/ce_dana/g09/l101.exe)
 ---
 TS0
 ---
 Symbolic Z-matrix:
 Charge =  0 Multiplicity = 2
 C                     1.068     0.74144  -1.14604 
 C                     0.07574  -0.28071  -0.706 
 C                    -0.85182   0.00029   0.436 
 H                     1.44716   0.72161  -2.16934 
 H                     1.16822   1.66242  -0.56689 
 H                     1.34986  -0.33561  -0.46372 
 H                    -0.216    -1.02601  -1.45199 
 H                    -1.28628  -0.92185   0.84875 
 H                    -1.68677   0.6556    0.12224 
 H                    -0.3306    0.52191   1.2553 
 
 NAtoms=     10 NQM=       10 NQMF=       0 NMMI=      0 NMMIF=      0
                NMic=       0 NMicF=      0.
                    Isotopes and Nuclear Properties:
 (Nuclear quadrupole moments (NQMom) in fm**2, nuclear magnetic moments (NMagM)
  in nuclear magnetons)

  Atom         1           2           3           4           5           6           7           8           9          10
 IAtWgt=          12          12          12           1           1           1           1           1           1           1
 AtmWgt=  12.0000000  12.0000000  12.0000000   1.0078250   1.0078250   1.0078250   1.0078250   1.0078250   1.0078250   1.0078250
 NucSpn=           0           0           0           1           1           1           1           1           1           1
 AtZEff=   0.0000000   0.0000000   0.0000000   0.0000000   0.0000000   0.0000000   0.0000000   0.0000000   0.0000000   0.0000000
 NQMom=    0.0000000   0.0000000   0.0000000   0.0000000   0.0000000   0.0000000   0.0000000   0.0000000   0.0000000   0.0000000
 NMagM=    0.0000000   0.0000000   0.0000000   2.7928460   2.7928460   2.7928460   2.7928460   2.7928460   2.7928460   2.7928460
 AtZNuc=   6.0000000   6.0000000   6.0000000   1.0000000   1.0000000   1.0000000   1.0000000   1.0000000   1.0000000   1.0000000
 Leave Link  101 at Sun May 22 09:31:27 2022, MaxMem=   939524096 cpu:         0.3
 (Enter /Local/ce_dana/g09/l103.exe)

 GradGradGradGradGradGradGradGradGradGradGradGradGradGradGradGradGradGrad
 Berny optimization.
 Initialization pass.
                           ----------------------------
                           !    Initial Parameters    !
                           ! (Angstroms and Degrees)  !
 --------------------------                            --------------------------
 ! Name  Definition              Value          Derivative Info.                !
 --------------------------------------------------------------------------------
 ! R1    R(1,2)                  1.491          calculate D2E/DX2 analytically  !
 ! R2    R(1,4)                  1.0915         calculate D2E/DX2 analytically  !
 ! R3    R(1,5)                  1.0926         calculate D2E/DX2 analytically  !
 ! R4    R(2,3)                  1.4978         calculate D2E/DX2 analytically  !
 ! R5    R(2,6)                  1.2981         calculate D2E/DX2 analytically  !
 ! R6    R(2,7)                  1.0941         calculate D2E/DX2 analytically  !
 ! R7    R(3,8)                  1.0997         calculate D2E/DX2 analytically  !
 ! R8    R(3,9)                  1.1068         calculate D2E/DX2 analytically  !
 ! R9    R(3,10)                 1.1023         calculate D2E/DX2 analytically  !
 ! A1    A(2,1,4)              119.6987         calculate D2E/DX2 analytically  !
 ! A2    A(2,1,5)              118.849          calculate D2E/DX2 analytically  !
 ! A3    A(4,1,5)              118.7132         calculate D2E/DX2 analytically  !
 ! A4    A(1,2,3)              120.567          calculate D2E/DX2 analytically  !
 ! A5    A(1,2,6)               55.3101         calculate D2E/DX2 analytically  !
 ! A6    A(1,2,7)              116.3093         calculate D2E/DX2 analytically  !
 ! A7    A(3,2,6)              118.2592         calculate D2E/DX2 analytically  !
 ! A8    A(3,2,7)              118.8497         calculate D2E/DX2 analytically  !
 ! A9    A(6,2,7)              111.11           calculate D2E/DX2 analytically  !
 ! A10   A(2,3,8)              111.9314         calculate D2E/DX2 analytically  !
 ! A11   A(2,3,9)              111.2291         calculate D2E/DX2 analytically  !
 ! A12   A(2,3,10)             111.2634         calculate D2E/DX2 analytically  !
 ! A13   A(8,3,9)              107.748          calculate D2E/DX2 analytically  !
 ! A14   A(8,3,10)             107.7363         calculate D2E/DX2 analytically  !
 ! A15   A(9,3,10)             106.6923         calculate D2E/DX2 analytically  !
 ! D1    D(4,1,2,3)           -155.6499         calculate D2E/DX2 analytically  !
 ! D2    D(4,1,2,6)             99.2839         calculate D2E/DX2 analytically  !
 ! D3    D(4,1,2,7)              0.8654         calculate D2E/DX2 analytically  !
 ! D4    D(5,1,2,3)              5.3707         calculate D2E/DX2 analytically  !
 ! D5    D(5,1,2,6)            -99.6955         calculate D2E/DX2 analytically  !
 ! D6    D(5,1,2,7)            161.886          calculate D2E/DX2 analytically  !
 ! D7    D(1,2,3,8)           -161.7568         calculate D2E/DX2 analytically  !
 ! D8    D(1,2,3,9)             77.6499         calculate D2E/DX2 analytically  !
 ! D9    D(1,2,3,10)           -41.1545         calculate D2E/DX2 analytically  !
 ! D10   D(6,2,3,8)            -97.412          calculate D2E/DX2 analytically  !
 ! D11   D(6,2,3,9)            141.9946         calculate D2E/DX2 analytically  !
 ! D12   D(6,2,3,10)            23.1903         calculate D2E/DX2 analytically  !
 ! D13   D(7,2,3,8)             42.3126         calculate D2E/DX2 analytically  !
 ! D14   D(7,2,3,9)            -78.2807         calculate D2E/DX2 analytically  !
 ! D15   D(7,2,3,10)           162.9149         calculate D2E/DX2 analytically  !
 --------------------------------------------------------------------------------
 Trust Radius=3.00D-01 FncErr=1.00D-07 GrdErr=1.00D-07
 Number of steps in this run=    100 maximum allowed number of steps=    100.
 Search for a saddle point of order  1.
 GradGradGradGradGradGradGradGradGradGradGradGradGradGradGradGradGradGrad

 Leave Link  103 at Sun May 22 09:31:27 2022, MaxMem=   939524096 cpu:         0.0
 (Enter /Local/ce_dana/g09/l202.exe)
                          Input orientation:                          
 ---------------------------------------------------------------------
 Center     Atomic      Atomic             Coordinates (Angstroms)
 Number     Number       Type             X           Y           Z
 ---------------------------------------------------------------------
      1          6           0        1.068000    0.741437   -1.146038
      2          6           0        0.075741   -0.280706   -0.705999
      3          6           0       -0.851820    0.000286    0.435999
      4          1           0        1.447155    0.721613   -2.169342
      5          1           0        1.168222    1.662424   -0.566891
      6          1           0        1.349859   -0.335607   -0.463723
      7          1           0       -0.215997   -1.026006   -1.451992
      8          1           0       -1.286278   -0.921847    0.848749
      9          1           0       -1.686766    0.655600    0.122237
     10          1           0       -0.330601    0.521914    1.255304
 ---------------------------------------------------------------------
                    Distance matrix (angstroms):
                    1          2          3          4          5
     1  C    0.000000
     2  C    1.490969   0.000000
     3  C    2.595738   1.497827   0.000000
     4  H    1.091468   2.242051   3.548718   0.000000
     5  H    1.092553   2.233522   2.801618   1.879036   0.000000
     6  H    1.305765   1.298110   2.402023   2.009059   2.008921
     7  H    2.205926   1.094115   2.240994   2.516910   3.150734
     8  H    3.505469   2.164116   1.099748   4.391069   3.834979
     9  H    3.033913   2.160804   1.106805   3.882931   3.104762
    10  H    2.787601   2.157782   1.102282   3.863741   2.620616
                    6          7          8          9         10
     6  H    0.000000
     7  H    1.976166   0.000000
     8  H    3.002579   2.539638   0.000000
     9  H    3.247604   2.732976   1.782288   0.000000
    10  H    2.552321   3.120680   1.778497   1.772257   0.000000
 Stoichiometry    C3H7(2)
 Framework group  C1[X(C3H7)]
 Deg. of freedom    24
 Full point group                 C1      NOp   1
 Largest Abelian subgroup         C1      NOp   1
 Largest concise Abelian subgroup C1      NOp   1
                         Standard orientation:                         
 ---------------------------------------------------------------------
 Center     Atomic      Atomic             Coordinates (Angstroms)
 Number     Number       Type             X           Y           Z
 ---------------------------------------------------------------------
      1          6           0       -1.316636   -0.254549   -0.035059
      2          6           0       -0.041509    0.515702    0.026208
      3          6           0        1.278297   -0.190669   -0.025163
      4          1           0       -2.225987    0.232482   -0.391687
      5          1           0       -1.273896   -1.346247   -0.028483
      6          1           0       -0.819126    0.292191    1.041315
      7          1           0       -0.092202    1.563126   -0.285914
      8          1           0        2.097739    0.442501    0.345051
      9          1           0        1.529040   -0.496817   -1.058806
     10          1           0        1.263515   -1.110139    0.582604
 ---------------------------------------------------------------------
 Rotational constants (GHZ):     37.5272220      8.5522485      7.5811035
 Leave Link  202 at Sun May 22 09:31:27 2022, MaxMem=   939524096 cpu:         0.0
 (Enter /Local/ce_dana/g09/l301.exe)
 Standard basis: 3-21G (6D, 7F)
 Ernie: Thresh=  0.10000D-02 Tol=  0.10000D-05 Strict=F.
 There are    41 symmetry adapted cartesian basis functions of A   symmetry.
 There are    41 symmetry adapted basis functions of A   symmetry.
    41 basis functions,    66 primitive gaussians,    41 cartesian basis functions
    13 alpha electrons       12 beta electrons
       nuclear repulsion energy        75.9782286790 Hartrees.
 IExCor=    0 DFT=F Ex=HF Corr=None ExCW=0 ScaHFX=  1.000000
 ScaDFX=  1.000000  1.000000  1.000000  1.000000 ScalE2=  1.000000  1.000000
 IRadAn=      0 IRanWt=     -1 IRanGd=            0 ICorTp=0 IEmpDi=  4
 NAtoms=   10 NActive=   10 NUniq=   10 SFac= 1.00D+00 NAtFMM=   60 NAOKFM=F Big=F
 Integral buffers will be    131072 words long.
 Raffenetti 2 integral format.
 Two-electron integral symmetry is turned on.
 Leave Link  301 at Sun May 22 09:31:27 2022, MaxMem=   939524096 cpu:         0.0
 (Enter /Local/ce_dana/g09/l302.exe)
 NPDir=0 NMtPBC=     1 NCelOv=     1 NCel=       1 NClECP=     1 NCelD=      1
         NCelK=      1 NCelE2=     1 NClLst=     1 CellRange=     0.0.
 One-electron integrals computed using PRISM.
 NBasis=    41 RedAO= T EigKep=  1.55D-02  NBF=    41
 NBsUse=    41 1.00D-06 EigRej= -1.00D+00 NBFU=    41
 Leave Link  302 at Sun May 22 09:31:27 2022, MaxMem=   939524096 cpu:         0.7
 (Enter /Local/ce_dana/g09/l303.exe)
 DipDrv:  MaxL=1.
 Leave Link  303 at Sun May 22 09:31:27 2022, MaxMem=   939524096 cpu:         0.1
 (Enter /Local/ce_dana/g09/l401.exe)
 Initial guess from the checkpoint file:  "check.chk"
 B after Tr=     0.000000    0.000000   -0.000000
         Rot=    0.999258    0.028657   -0.002678   -0.025612 Ang=   4.42 deg.
 Guess basis will be translated and rotated to current coordinates.
 JPrj=2 DoOrth=T DoCkMO=T.
 Initial guess <Sx>= 0.0000 <Sy>= 0.0000 <Sz>= 0.5000 <S**2>= 0.7755 S= 0.5126
 Leave Link  401 at Sun May 22 09:31:27 2022, MaxMem=   939524096 cpu:         0.2
 (Enter /Local/ce_dana/g09/l502.exe)
 UHF open shell SCF:
 Using DIIS extrapolation, IDIIS=  1040.
 Integral symmetry usage will be decided dynamically.
 Keep R1 and R2 ints in memory in canonical form, NReq=1568840.
 IVT=       11725 IEndB=       11725 NGot=   939524096 MDV=   938770190
 LenX=   938770190 LenY=   938768068
 Requested convergence on RMS density matrix=1.00D-08 within  64 cycles.
 Requested convergence on MAX density matrix=1.00D-06.
 Requested convergence on             energy=1.00D-06.
 No special actions if energy rises.
 FoFCou: FMM=F IPFlag=           0 FMFlag=           0 FMFlg1=           0
         NFxFlg=           0 DoJE=F BraDBF=F KetDBF=F FulRan=T
         wScrn=  0.000000 ICntrl=     600 IOpCl=  0 I1Cent=           0 NGrid=           0
         NMat0=    1 NMatS0=    861 NMatT0=    0 NMatD0=    1 NMtDS0=    0 NMtDT0=    0
 Symmetry not used in FoFCou.

 Cycle   1  Pass 1  IDiag  1:
 E= -113.946313543418    
 DIIS: error= 1.02D-01 at cycle   1 NSaved=   1.
 NSaved= 1 IEnMin= 1 EnMin= -113.946313543418     IErMin= 1 ErrMin= 1.02D-01
 ErrMax= 1.02D-01  0.00D+00 EMaxC= 1.00D-01 BMatC= 2.09D+00 BMatP= 2.09D+00
 IDIUse=3 WtCom= 0.00D+00 WtEn= 1.00D+00
 Coeff-Com:  0.100D+01
 Coeff-En:   0.100D+01
 Coeff:      0.100D+01
 Gap=     0.778 Goal=   None    Shift=    0.000
 Gap=     0.490 Goal=   None    Shift=    0.000
 GapD=    0.490 DampG=2.000 DampE=0.250 DampFc=0.5000 IDamp=-1.
 Damping current iteration by 5.00D-01
 RMSDP=5.95D-02 MaxDP=3.60D-01              OVMax= 9.59D-01

 Cycle   2  Pass 1  IDiag  1:
 E= -115.044024847620     Delta-E=       -1.097711304202 Rises=F Damp=T
 DIIS: error= 5.14D-02 at cycle   2 NSaved=   2.
 NSaved= 2 IEnMin= 2 EnMin= -115.044024847620     IErMin= 2 ErrMin= 5.14D-02
 ErrMax= 5.14D-02  0.00D+00 EMaxC= 1.00D-01 BMatC= 6.71D-01 BMatP= 2.09D+00
 IDIUse=3 WtCom= 4.86D-01 WtEn= 5.14D-01
 Coeff-Com: -0.640D+00 0.164D+01
 Coeff-En:   0.000D+00 0.100D+01
 Coeff:     -0.311D+00 0.131D+01
 Gap=     0.352 Goal=   None    Shift=    0.000
 Gap=     0.417 Goal=   None    Shift=    0.000
 RMSDP=3.20D-02 MaxDP=1.87D-01 DE=-1.10D+00 OVMax= 1.83D-01

 Cycle   3  Pass 1  IDiag  1:
 E= -116.829892617374     Delta-E=       -1.785867769754 Rises=F Damp=F
 DIIS: error= 2.28D-02 at cycle   3 NSaved=   3.
 NSaved= 3 IEnMin= 3 EnMin= -116.829892617374     IErMin= 3 ErrMin= 2.28D-02
 ErrMax= 2.28D-02  0.00D+00 EMaxC= 1.00D-01 BMatC= 6.12D-02 BMatP= 6.71D-01
 IDIUse=3 WtCom= 7.72D-01 WtEn= 2.28D-01
 Coeff-Com:  0.190D+00-0.462D+00 0.127D+01
 Coeff-En:   0.000D+00 0.000D+00 0.100D+01
 Coeff:      0.147D+00-0.357D+00 0.121D+01
 Gap=     0.508 Goal=   None    Shift=    0.000
 Gap=     0.596 Goal=   None    Shift=    0.000
 RMSDP=8.35D-03 MaxDP=1.07D-01 DE=-1.79D+00 OVMax= 1.24D-01

 Cycle   4  Pass 1  IDiag  1:
 E= -116.876107195273     Delta-E=       -0.046214577899 Rises=F Damp=F
 DIIS: error= 9.20D-03 at cycle   4 NSaved=   4.
 NSaved= 4 IEnMin= 4 EnMin= -116.876107195273     IErMin= 4 ErrMin= 9.20D-03
 ErrMax= 9.20D-03  0.00D+00 EMaxC= 1.00D-01 BMatC= 8.68D-03 BMatP= 6.12D-02
 IDIUse=3 WtCom= 9.08D-01 WtEn= 9.20D-02
 Coeff-Com:  0.515D-01-0.846D-01-0.209D+00 0.124D+01
 Coeff-En:   0.000D+00 0.000D+00 0.000D+00 0.100D+01
 Coeff:      0.468D-01-0.768D-01-0.190D+00 0.122D+01
 Gap=     0.513 Goal=   None    Shift=    0.000
 Gap=     0.577 Goal=   None    Shift=    0.000
 RMSDP=4.02D-03 MaxDP=5.33D-02 DE=-4.62D-02 OVMax= 5.95D-02

 Cycle   5  Pass 1  IDiag  1:
 E= -116.883836798806     Delta-E=       -0.007729603533 Rises=F Damp=F
 DIIS: error= 4.84D-03 at cycle   5 NSaved=   5.
 NSaved= 5 IEnMin= 5 EnMin= -116.883836798806     IErMin= 5 ErrMin= 4.84D-03
 ErrMax= 4.84D-03  0.00D+00 EMaxC= 1.00D-01 BMatC= 1.27D-03 BMatP= 8.68D-03
 IDIUse=3 WtCom= 9.52D-01 WtEn= 4.84D-02
 Coeff-Com: -0.153D-01 0.328D-01-0.555D-01-0.244D+00 0.128D+01
 Coeff-En:   0.000D+00 0.000D+00 0.000D+00 0.000D+00 0.100D+01
 Coeff:     -0.145D-01 0.312D-01-0.529D-01-0.232D+00 0.127D+01
 Gap=     0.518 Goal=   None    Shift=    0.000
 Gap=     0.582 Goal=   None    Shift=    0.000
 RMSDP=2.02D-03 MaxDP=2.75D-02 DE=-7.73D-03 OVMax= 3.28D-02

 Cycle   6  Pass 1  IDiag  1:
 E= -116.885266606978     Delta-E=       -0.001429808173 Rises=F Damp=F
 DIIS: error= 1.60D-03 at cycle   6 NSaved=   6.
 NSaved= 6 IEnMin= 6 EnMin= -116.885266606978     IErMin= 6 ErrMin= 1.60D-03
 ErrMax= 1.60D-03  0.00D+00 EMaxC= 1.00D-01 BMatC= 2.45D-04 BMatP= 1.27D-03
 IDIUse=3 WtCom= 9.84D-01 WtEn= 1.60D-02
 Coeff-Com: -0.543D-02 0.757D-02 0.470D-01-0.224D+00-0.459D-01 0.122D+01
 Coeff-En:   0.000D+00 0.000D+00 0.000D+00 0.000D+00 0.000D+00 0.100D+01
 Coeff:     -0.535D-02 0.745D-02 0.462D-01-0.220D+00-0.452D-01 0.122D+01
 Gap=     0.519 Goal=   None    Shift=    0.000
 Gap=     0.584 Goal=   None    Shift=    0.000
 RMSDP=1.00D-03 MaxDP=1.46D-02 DE=-1.43D-03 OVMax= 1.55D-02

 Cycle   7  Pass 1  IDiag  1:
 E= -116.885529047394     Delta-E=       -0.000262440416 Rises=F Damp=F
 DIIS: error= 7.79D-04 at cycle   7 NSaved=   7.
 NSaved= 7 IEnMin= 7 EnMin= -116.885529047394     IErMin= 7 ErrMin= 7.79D-04
 ErrMax= 7.79D-04  0.00D+00 EMaxC= 1.00D-01 BMatC= 2.49D-05 BMatP= 2.45D-04
 IDIUse=3 WtCom= 9.92D-01 WtEn= 7.79D-03
 Coeff-Com:  0.299D-02-0.543D-02 0.578D-03 0.664D-01-0.161D+00-0.185D+00
 Coeff-Com:  0.128D+01
 Coeff-En:   0.000D+00 0.000D+00 0.000D+00 0.000D+00 0.000D+00 0.000D+00
 Coeff-En:   0.100D+01
 Coeff:      0.297D-02-0.539D-02 0.574D-03 0.658D-01-0.160D+00-0.184D+00
 Coeff:      0.128D+01
 Gap=     0.520 Goal=   None    Shift=    0.000
 Gap=     0.584 Goal=   None    Shift=    0.000
 RMSDP=3.60D-04 MaxDP=5.95D-03 DE=-2.62D-04 OVMax= 6.03D-03

 Cycle   8  Pass 1  IDiag  1:
 E= -116.885559924238     Delta-E=       -0.000030876843 Rises=F Damp=F
 DIIS: error= 2.49D-04 at cycle   8 NSaved=   8.
 NSaved= 8 IEnMin= 8 EnMin= -116.885559924238     IErMin= 8 ErrMin= 2.49D-04
 ErrMax= 2.49D-04  0.00D+00 EMaxC= 1.00D-01 BMatC= 3.42D-06 BMatP= 2.49D-05
 IDIUse=3 WtCom= 9.98D-01 WtEn= 2.49D-03
 Coeff-Com: -0.199D-03 0.551D-03-0.321D-02-0.737D-02 0.746D-01-0.527D-01
 Coeff-Com: -0.537D+00 0.153D+01
 Coeff-En:   0.000D+00 0.000D+00 0.000D+00 0.000D+00 0.000D+00 0.000D+00
 Coeff-En:   0.000D+00 0.100D+01
 Coeff:     -0.199D-03 0.550D-03-0.320D-02-0.735D-02 0.744D-01-0.526D-01
 Coeff:     -0.536D+00 0.152D+01
 Gap=     0.521 Goal=   None    Shift=    0.000
 Gap=     0.584 Goal=   None    Shift=    0.000
 RMSDP=1.46D-04 MaxDP=2.25D-03 DE=-3.09D-05 OVMax= 2.38D-03

 Cycle   9  Pass 1  IDiag  1:
 E= -116.885564938242     Delta-E=       -0.000005014005 Rises=F Damp=F
 DIIS: error= 9.94D-05 at cycle   9 NSaved=   9.
 NSaved= 9 IEnMin= 9 EnMin= -116.885564938242     IErMin= 9 ErrMin= 9.94D-05
 ErrMax= 9.94D-05  0.00D+00 EMaxC= 1.00D-01 BMatC= 4.93D-07 BMatP= 3.42D-06
 IDIUse=1 WtCom= 1.00D+00 WtEn= 0.00D+00
 Coeff-Com:  0.497D-04-0.132D-03 0.145D-02-0.457D-02-0.555D-02 0.377D-01
 Coeff-Com:  0.161D-01-0.474D+00 0.143D+01
 Coeff:      0.497D-04-0.132D-03 0.145D-02-0.457D-02-0.555D-02 0.377D-01
 Coeff:      0.161D-01-0.474D+00 0.143D+01
 Gap=     0.521 Goal=   None    Shift=    0.000
 Gap=     0.584 Goal=   None    Shift=    0.000
 RMSDP=5.88D-05 MaxDP=8.17D-04 DE=-5.01D-06 OVMax= 9.29D-04

 Cycle  10  Pass 1  IDiag  1:
 E= -116.885565725896     Delta-E=       -0.000000787654 Rises=F Damp=F
 DIIS: error= 4.78D-05 at cycle  10 NSaved=  10.
 NSaved=10 IEnMin=10 EnMin= -116.885565725896     IErMin=10 ErrMin= 4.78D-05
 ErrMax= 4.78D-05  0.00D+00 EMaxC= 1.00D-01 BMatC= 1.07D-07 BMatP= 4.93D-07
 IDIUse=1 WtCom= 1.00D+00 WtEn= 0.00D+00
 Coeff-Com:  0.134D-03-0.264D-03 0.677D-03 0.114D-02-0.121D-01 0.933D-02
 Coeff-Com:  0.803D-01-0.240D+00 0.165D-01 0.114D+01
 Coeff:      0.134D-03-0.264D-03 0.677D-03 0.114D-02-0.121D-01 0.933D-02
 Coeff:      0.803D-01-0.240D+00 0.165D-01 0.114D+01
 Gap=     0.521 Goal=   None    Shift=    0.000
 Gap=     0.584 Goal=   None    Shift=    0.000
 RMSDP=2.34D-05 MaxDP=3.29D-04 DE=-7.88D-07 OVMax= 3.63D-04

 Cycle  11  Pass 1  IDiag  1:
 E= -116.885565880652     Delta-E=       -0.000000154756 Rises=F Damp=F
 DIIS: error= 2.71D-05 at cycle  11 NSaved=  11.
 NSaved=11 IEnMin=11 EnMin= -116.885565880652     IErMin=11 ErrMin= 2.71D-05
 ErrMax= 2.71D-05  0.00D+00 EMaxC= 1.00D-01 BMatC= 3.43D-08 BMatP= 1.07D-07
 IDIUse=1 WtCom= 1.00D+00 WtEn= 0.00D+00
 Coeff-Com:  0.167D-04-0.311D-04-0.659D-03 0.150D-02 0.735D-02-0.177D-01
 Coeff-Com: -0.464D-01 0.281D+00-0.433D+00-0.672D+00 0.188D+01
 Coeff:      0.167D-04-0.311D-04-0.659D-03 0.150D-02 0.735D-02-0.177D-01
 Coeff:     -0.464D-01 0.281D+00-0.433D+00-0.672D+00 0.188D+01
 Gap=     0.521 Goal=   None    Shift=    0.000
 Gap=     0.584 Goal=   None    Shift=    0.000
 RMSDP=1.69D-05 MaxDP=2.51D-04 DE=-1.55D-07 OVMax= 2.90D-04

 Cycle  12  Pass 1  IDiag  1:
 E= -116.885565944221     Delta-E=       -0.000000063569 Rises=F Damp=F
 DIIS: error= 7.95D-06 at cycle  12 NSaved=  12.
 NSaved=12 IEnMin=12 EnMin= -116.885565944221     IErMin=12 ErrMin= 7.95D-06
 ErrMax= 7.95D-06  0.00D+00 EMaxC= 1.00D-01 BMatC= 5.12D-09 BMatP= 3.43D-08
 IDIUse=1 WtCom= 1.00D+00 WtEn= 0.00D+00
 Coeff-Com: -0.590D-05 0.780D-05 0.318D-03-0.903D-03-0.249D-02 0.879D-02
 Coeff-Com:  0.141D-01-0.131D+00 0.280D+00 0.190D+00-0.120D+01 0.184D+01
 Coeff:     -0.590D-05 0.780D-05 0.318D-03-0.903D-03-0.249D-02 0.879D-02
 Coeff:      0.141D-01-0.131D+00 0.280D+00 0.190D+00-0.120D+01 0.184D+01
 Gap=     0.521 Goal=   None    Shift=    0.000
 Gap=     0.584 Goal=   None    Shift=    0.000
 RMSDP=6.22D-06 MaxDP=7.57D-05 DE=-6.36D-08 OVMax= 1.10D-04

 Cycle  13  Pass 1  IDiag  1:
 E= -116.885565952720     Delta-E=       -0.000000008499 Rises=F Damp=F
 DIIS: error= 1.69D-06 at cycle  13 NSaved=  13.
 NSaved=13 IEnMin=13 EnMin= -116.885565952720     IErMin=13 ErrMin= 1.69D-06
 ErrMax= 1.69D-06  0.00D+00 EMaxC= 1.00D-01 BMatC= 3.75D-10 BMatP= 5.12D-09
 IDIUse=1 WtCom= 1.00D+00 WtEn= 0.00D+00
 Coeff-Com:  0.101D-04-0.187D-04-0.777D-04 0.260D-03 0.636D-03-0.254D-02
 Coeff-Com: -0.340D-02 0.397D-01-0.968D-01-0.380D-01 0.429D+00-0.917D+00
 Coeff-Com:  0.159D+01
 Coeff:      0.101D-04-0.187D-04-0.777D-04 0.260D-03 0.636D-03-0.254D-02
 Coeff:     -0.340D-02 0.397D-01-0.968D-01-0.380D-01 0.429D+00-0.917D+00
 Coeff:      0.159D+01
 Gap=     0.521 Goal=   None    Shift=    0.000
 Gap=     0.584 Goal=   None    Shift=    0.000
 RMSDP=1.36D-06 MaxDP=1.35D-05 DE=-8.50D-09 OVMax= 1.83D-05

 Cycle  14  Pass 1  IDiag  1:
 E= -116.885565953170     Delta-E=       -0.000000000451 Rises=F Damp=F
 DIIS: error= 5.94D-07 at cycle  14 NSaved=  14.
 NSaved=14 IEnMin=14 EnMin= -116.885565953170     IErMin=14 ErrMin= 5.94D-07
 ErrMax= 5.94D-07  0.00D+00 EMaxC= 1.00D-01 BMatC= 4.74D-11 BMatP= 3.75D-10
 IDIUse=1 WtCom= 1.00D+00 WtEn= 0.00D+00
 Coeff-Com: -0.648D-06 0.673D-06 0.343D-04-0.974D-04-0.112D-03 0.655D-03
 Coeff-Com:  0.804D-03-0.127D-01 0.362D-01 0.162D-02-0.153D+00 0.399D+00
 Coeff-Com: -0.101D+01 0.173D+01
 Coeff:     -0.648D-06 0.673D-06 0.343D-04-0.974D-04-0.112D-03 0.655D-03
 Coeff:      0.804D-03-0.127D-01 0.362D-01 0.162D-02-0.153D+00 0.399D+00
 Coeff:     -0.101D+01 0.173D+01
 Gap=     0.521 Goal=   None    Shift=    0.000
 Gap=     0.584 Goal=   None    Shift=    0.000
 RMSDP=4.84D-07 MaxDP=4.43D-06 DE=-4.51D-10 OVMax= 6.14D-06

 Cycle  15  Pass 1  IDiag  1:
 E= -116.885565953226     Delta-E=       -0.000000000055 Rises=F Damp=F
 DIIS: error= 1.50D-07 at cycle  15 NSaved=  15.
 NSaved=15 IEnMin=15 EnMin= -116.885565953226     IErMin=15 ErrMin= 1.50D-07
 ErrMax= 1.50D-07  0.00D+00 EMaxC= 1.00D-01 BMatC= 5.20D-12 BMatP= 4.74D-11
 IDIUse=1 WtCom= 1.00D+00 WtEn= 0.00D+00
 Coeff-Com: -0.133D-06 0.450D-06-0.119D-04 0.415D-04-0.277D-04-0.121D-03
 Coeff-Com:  0.421D-04 0.277D-02-0.998D-02 0.326D-02 0.389D-01-0.119D+00
 Coeff-Com:  0.371D+00-0.961D+00 0.167D+01
 Coeff:     -0.133D-06 0.450D-06-0.119D-04 0.415D-04-0.277D-04-0.121D-03
 Coeff:      0.421D-04 0.277D-02-0.998D-02 0.326D-02 0.389D-01-0.119D+00
 Coeff:      0.371D+00-0.961D+00 0.167D+01
 Gap=     0.521 Goal=   None    Shift=    0.000
 Gap=     0.584 Goal=   None    Shift=    0.000
 RMSDP=1.37D-07 MaxDP=1.34D-06 DE=-5.52D-11 OVMax= 1.53D-06

 Cycle  16  Pass 1  IDiag  1:
 E= -116.885565953232     Delta-E=       -0.000000000006 Rises=F Damp=F
 DIIS: error= 5.45D-08 at cycle  16 NSaved=  16.
 NSaved=16 IEnMin=16 EnMin= -116.885565953232     IErMin=16 ErrMin= 5.45D-08
 ErrMax= 5.45D-08  0.00D+00 EMaxC= 1.00D-01 BMatC= 5.57D-13 BMatP= 5.20D-12
 IDIUse=1 WtCom= 1.00D+00 WtEn= 0.00D+00
 Coeff-Com:  0.161D-06-0.417D-06 0.461D-05-0.192D-04 0.315D-04 0.213D-04
 Coeff-Com: -0.134D-03-0.487D-03 0.275D-02-0.210D-02-0.880D-02 0.327D-01
 Coeff-Com: -0.120D+00 0.390D+00-0.977D+00 0.168D+01
 Coeff:      0.161D-06-0.417D-06 0.461D-05-0.192D-04 0.315D-04 0.213D-04
 Coeff:     -0.134D-03-0.487D-03 0.275D-02-0.210D-02-0.880D-02 0.327D-01
 Coeff:     -0.120D+00 0.390D+00-0.977D+00 0.168D+01
 Gap=     0.521 Goal=   None    Shift=    0.000
 Gap=     0.584 Goal=   None    Shift=    0.000
 RMSDP=3.96D-08 MaxDP=4.35D-07 DE=-6.28D-12 OVMax= 3.53D-07

 Cycle  17  Pass 1  IDiag  1:
 E= -116.885565953233     Delta-E=       -0.000000000001 Rises=F Damp=F
 DIIS: error= 2.43D-08 at cycle  17 NSaved=  17.
 NSaved=17 IEnMin=17 EnMin= -116.885565953233     IErMin=17 ErrMin= 2.43D-08
 ErrMax= 2.43D-08  0.00D+00 EMaxC= 1.00D-01 BMatC= 6.63D-14 BMatP= 5.57D-13
 IDIUse=1 WtCom= 1.00D+00 WtEn= 0.00D+00
 Coeff-Com: -0.101D-06 0.212D-06-0.181D-05 0.817D-05-0.142D-04-0.708D-05
 Coeff-Com:  0.593D-04 0.113D-03-0.811D-03 0.773D-03 0.175D-02-0.764D-02
 Coeff-Com:  0.302D-01-0.116D+00 0.365D+00-0.967D+00 0.169D+01
 Coeff:     -0.101D-06 0.212D-06-0.181D-05 0.817D-05-0.142D-04-0.708D-05
 Coeff:      0.593D-04 0.113D-03-0.811D-03 0.773D-03 0.175D-02-0.764D-02
 Coeff:      0.302D-01-0.116D+00 0.365D+00-0.967D+00 0.169D+01
 Gap=     0.521 Goal=   None    Shift=    0.000
 Gap=     0.584 Goal=   None    Shift=    0.000
 RMSDP=1.51D-08 MaxDP=1.83D-07 DE=-7.67D-13 OVMax= 2.10D-07

 Cycle  18  Pass 1  IDiag  1:
 E= -116.885565953233     Delta-E=        0.000000000000 Rises=F Damp=F
 DIIS: error= 5.98D-09 at cycle  18 NSaved=  18.
 NSaved=18 IEnMin=17 EnMin= -116.885565953233     IErMin=18 ErrMin= 5.98D-09
 ErrMax= 5.98D-09  0.00D+00 EMaxC= 1.00D-01 BMatC= 6.51D-15 BMatP= 6.63D-14
 IDIUse=1 WtCom= 1.00D+00 WtEn= 0.00D+00
 Large coefficients: NSaved= 18 BigCof=    0.00 CofMax=   10.00 Det=-2.85D-15
 Inversion failed.  Reducing to 17 matrices.
 Large coefficients: NSaved= 17 BigCof=    0.00 CofMax=   10.00 Det=-3.22D-15
 Inversion failed.  Reducing to 16 matrices.
 Large coefficients: NSaved= 16 BigCof=    0.00 CofMax=   10.00 Det=-3.30D-15
 Inversion failed.  Reducing to 15 matrices.
 Coeff-Com: -0.889D-06 0.418D-05-0.334D-05-0.211D-04 0.821D-04-0.134D-03
 Coeff-Com: -0.125D-03 0.947D-03-0.206D-02 0.427D-02-0.101D-02-0.394D-01
 Coeff-Com:  0.229D+00-0.761D+00 0.157D+01
 Coeff:     -0.889D-06 0.418D-05-0.334D-05-0.211D-04 0.821D-04-0.134D-03
 Coeff:     -0.125D-03 0.947D-03-0.206D-02 0.427D-02-0.101D-02-0.394D-01
 Coeff:      0.229D+00-0.761D+00 0.157D+01
 Gap=     0.521 Goal=   None    Shift=    0.000
 Gap=     0.584 Goal=   None    Shift=    0.000
 RMSDP=4.64D-09 MaxDP=5.25D-08 DE= 5.68D-14 OVMax= 5.57D-08

 SCF Done:  E(UHF) =  -116.885565953     A.U. after   18 cycles
            NFock= 18  Conv=0.46D-08     -V/T= 2.0024
 <Sx>= 0.0000 <Sy>= 0.0000 <Sz>= 0.5000 <S**2>= 0.8010 S= 0.5252
 <L.S>=  0.00000000000    
 KE= 1.166104665075D+02 PE=-4.230359097904D+02 EE= 1.135616486507D+02
 Annihilation of the first spin contaminant:
 S**2 before annihilation     0.8010,   after     0.7507
 Leave Link  502 at Sun May 22 09:31:27 2022, MaxMem=   939524096 cpu:         1.3
 (Enter /Local/ce_dana/g09/l508.exe)
 QCSCF skips out because SCF is already converged.
 Leave Link  508 at Sun May 22 09:31:27 2022, MaxMem=   939524096 cpu:         0.0
 (Enter /Local/ce_dana/g09/l801.exe)
 Range of M.O.s used for correlation:     1    41
 NBasis=    41 NAE=    13 NBE=    12 NFC=     0 NFV=     0
 NROrb=     41 NOA=    13 NOB=    12 NVA=    28 NVB=    29
 Leave Link  801 at Sun May 22 09:31:27 2022, MaxMem=   939524096 cpu:         0.1
 (Enter /Local/ce_dana/g09/l1101.exe)
 Using compressed storage, NAtomX=    10.
 Will process     11 centers per pass.
 Leave Link 1101 at Sun May 22 09:31:28 2022, MaxMem=   939524096 cpu:         0.8
 (Enter /Local/ce_dana/g09/l1102.exe)
 Symmetrizing basis deriv contribution to polar:
 IMax=3 JMax=2 DiffMx= 0.00D+00
 Leave Link 1102 at Sun May 22 09:31:28 2022, MaxMem=   939524096 cpu:         0.1
 (Enter /Local/ce_dana/g09/l1110.exe)
 Forming Gx(P) for the SCF density, NAtomX=    10.
 Integral derivatives from FoFJK, PRISM(SPDF).
 Do as many integral derivatives as possible in FoFJK.
 G2DrvN: MDV=     939523912.
 G2DrvN: will do    11 centers at a time, making    1 passes.
 Calling FoFCou, ICntrl=  3107 FMM=F I1Cent=   0 AccDes= 0.00D+00.
 FoFJK:  IHMeth= 1 ICntrl=    3107 DoSepK=F KAlg= 0 I1Cent=   0 FoldK=F
 IRaf=         0 NMat=   1 IRICut=       1 DoRegI=T DoRafI=F ISym2E= 0.
 FoFCou: FMM=F IPFlag=           0 FMFlag=      100000 FMFlg1=           0
         NFxFlg=           0 DoJE=F BraDBF=F KetDBF=F FulRan=T
         wScrn=  0.000000 ICntrl=    3107 IOpCl=  1 I1Cent=           0 NGrid=           0
         NMat0=    1 NMatS0=      1 NMatT0=    0 NMatD0=    1 NMtDS0=    0 NMtDT0=    0
 Symmetry not used in FoFCou.
 End of G2Drv F.D. properties file   721 does not exist.
 End of G2Drv F.D. properties file   722 does not exist.
 End of G2Drv F.D. properties file   788 does not exist.
 Leave Link 1110 at Sun May 22 09:31:28 2022, MaxMem=   939524096 cpu:         0.6
 (Enter /Local/ce_dana/g09/l1002.exe)
 Minotr:  UHF open shell wavefunction.
          IDoAtm=1111111111
          Direct CPHF calculation.
          Differentiating once with respect to nuclear coordinates.
          Requested convergence is 1.0D-08 RMS, and 1.0D-07 maximum.
          Secondary convergence is 1.0D-12 RMS, and 1.0D-12 maximum.
          NewPWx=T KeepS1=F KeepF1=F KeepIn=T MapXYZ=F SortEE=F KeepMc=T.
          MDV=     939523910 using IRadAn=       2.
 Keep R1 and R2 ints in memory in canonical form, NReq=1562625.
 FoFCou: FMM=F IPFlag=           0 FMFlag=           0 FMFlg1=           0
         NFxFlg=           0 DoJE=F BraDBF=F KetDBF=F FulRan=T
         wScrn=  0.000000 ICntrl=     600 IOpCl=  0 I1Cent=           0 NGrid=           0
         NMat0=    1 NMatS0=    861 NMatT0=    0 NMatD0=    1 NMtDS0=    0 NMtDT0=    0
 Symmetry not used in FoFCou.
          Solving linear equations simultaneously, MaxMat=       0.
          There are    33 degrees of freedom in the 1st order CPHF.  IDoFFX=6 NUNeed=     0.
     27 vectors produced by pass  0 Test12= 2.16D-15 3.03D-09 XBig12= 8.02D-02 1.15D-01.
 AX will form    27 AO Fock derivatives at one time.
     27 vectors produced by pass  1 Test12= 2.16D-15 3.03D-09 XBig12= 3.27D-03 1.69D-02.
     27 vectors produced by pass  2 Test12= 2.16D-15 3.03D-09 XBig12= 4.71D-05 1.85D-03.
     27 vectors produced by pass  3 Test12= 2.16D-15 3.03D-09 XBig12= 1.30D-06 2.64D-04.
     27 vectors produced by pass  4 Test12= 2.16D-15 3.03D-09 XBig12= 2.15D-08 2.38D-05.
     27 vectors produced by pass  5 Test12= 2.16D-15 3.03D-09 XBig12= 1.91D-10 2.27D-06.
     27 vectors produced by pass  6 Test12= 2.16D-15 3.03D-09 XBig12= 1.77D-12 1.82D-07.
      9 vectors produced by pass  7 Test12= 2.16D-15 3.03D-09 XBig12= 1.39D-14 1.69D-08.
 InvSVY:  IOpt=1 It=  1 EMax= 2.22D-15
 Solved reduced A of dimension   198 with    27 vectors.
 End of Minotr F.D. properties file   721 does not exist.
 End of Minotr F.D. properties file   722 does not exist.
 End of Minotr F.D. properties file   788 does not exist.
 Leave Link 1002 at Sun May 22 09:31:28 2022, MaxMem=   939524096 cpu:         2.0
 (Enter /Local/ce_dana/g09/l601.exe)
 Copying SCF densities to generalized density rwf, IOpCl= 1 IROHF=0.

 **********************************************************************

            Population analysis using the SCF density.

 **********************************************************************

 Orbital symmetries:
 Alpha Orbitals:
       Occupied  (A) (A) (A) (A) (A) (A) (A) (A) (A) (A) (A) (A)
                 (A)
       Virtual   (A) (A) (A) (A) (A) (A) (A) (A) (A) (A) (A) (A)
                 (A) (A) (A) (A) (A) (A) (A) (A) (A) (A) (A) (A)
                 (A) (A) (A) (A)
 Beta  Orbitals:
       Occupied  (A) (A) (A) (A) (A) (A) (A) (A) (A) (A) (A) (A)
       Virtual   (A) (A) (A) (A) (A) (A) (A) (A) (A) (A) (A) (A)
                 (A) (A) (A) (A) (A) (A) (A) (A) (A) (A) (A) (A)
                 (A) (A) (A) (A) (A)
 The electronic state is 2-A.
 Alpha  occ. eigenvalues --  -11.18014 -11.17155 -11.16285  -1.09344  -0.94454
 Alpha  occ. eigenvalues --   -0.78436  -0.64791  -0.60951  -0.57190  -0.53170
 Alpha  occ. eigenvalues --   -0.50044  -0.46205  -0.25853
 Alpha virt. eigenvalues --    0.26216   0.28913   0.31073   0.31669   0.35343
 Alpha virt. eigenvalues --    0.35654   0.36191   0.46079   0.49998   0.88016
 Alpha virt. eigenvalues --    0.93227   0.94827   0.99028   0.99900   1.04361
 Alpha virt. eigenvalues --    1.11091   1.14544   1.25617   1.27377   1.32155
 Alpha virt. eigenvalues --    1.33180   1.37045   1.37828   1.40006   1.55587
 Alpha virt. eigenvalues --    1.87657   1.92615   2.26000
  Beta  occ. eigenvalues --  -11.16480 -11.16420 -11.15605  -1.05070  -0.92509
  Beta  occ. eigenvalues --   -0.73514  -0.62669  -0.58364  -0.55594  -0.52168
  Beta  occ. eigenvalues --   -0.49209  -0.40717
  Beta virt. eigenvalues --    0.17720   0.27498   0.29780   0.31989   0.32794
  Beta virt. eigenvalues --    0.35643   0.36763   0.38037   0.48254   0.51589
  Beta virt. eigenvalues --    0.88253   0.94199   0.95795   1.00689   1.05832
  Beta virt. eigenvalues --    1.09554   1.12264   1.16127   1.26030   1.27766
  Beta virt. eigenvalues --    1.33084   1.34053   1.37301   1.38425   1.40470
  Beta virt. eigenvalues --    1.56505   1.89318   1.95181   2.26965
          Condensed to atoms (all electrons):
               1          2          3          4          5          6
     1  C    5.791653   0.056901  -0.064763   0.372811   0.375724   0.055144
     2  C    0.056901   5.875644   0.230878  -0.035898  -0.039828   0.094164
     3  C   -0.064763   0.230878   5.312268   0.001825  -0.000446  -0.008164
     4  H    0.372811  -0.035898   0.001825   0.455595  -0.013863  -0.001241
     5  H    0.375724  -0.039828  -0.000446  -0.013863   0.458603  -0.002027
     6  H    0.055144   0.094164  -0.008164  -0.001241  -0.002027   0.590787
     7  H   -0.032335   0.380869  -0.025852  -0.001551   0.001502  -0.003005
     8  H    0.003225  -0.043902   0.379621  -0.000036  -0.000023  -0.001974
     9  H   -0.001066  -0.054374   0.371754   0.000027   0.000692   0.001732
    10  H    0.002948  -0.051328   0.381793  -0.000019   0.000845  -0.001045
               7          8          9         10
     1  C   -0.032335   0.003225  -0.001066   0.002948
     2  C    0.380869  -0.043902  -0.054374  -0.051328
     3  C   -0.025852   0.379621   0.371754   0.381793
     4  H   -0.001551  -0.000036   0.000027  -0.000019
     5  H    0.001502  -0.000023   0.000692   0.000845
     6  H   -0.003005  -0.001974   0.001732  -0.001045
     7  H    0.453489  -0.001724  -0.000677   0.002109
     8  H   -0.001724   0.511373  -0.027763  -0.023677
     9  H   -0.000677  -0.027763   0.534403  -0.029285
    10  H    0.002109  -0.023677  -0.029285   0.518792
          Atomic-Atomic Spin Densities.
               1          2          3          4          5          6
     1  C    1.123651  -0.373466   0.011411  -0.021853  -0.021557   0.021360
     2  C   -0.373466   1.147094  -0.053088   0.005661   0.006246   0.040245
     3  C    0.011411  -0.053088  -0.094353  -0.000430  -0.000125  -0.000860
     4  H   -0.021853   0.005661  -0.000430  -0.040583   0.002360  -0.000020
     5  H   -0.021557   0.006246  -0.000125   0.002360  -0.045964   0.000395
     6  H    0.021360   0.040245  -0.000860  -0.000020   0.000395  -0.322225
     7  H    0.007707  -0.022282   0.003407  -0.000514  -0.000441  -0.001127
     8  H    0.000113  -0.004511   0.006854   0.000000  -0.000016   0.000812
     9  H    0.001649  -0.017671   0.001791   0.000082   0.000448  -0.000271
    10  H    0.002945  -0.009513   0.009490  -0.000037  -0.000720  -0.000540
               7          8          9         10
     1  C    0.007707   0.000113   0.001649   0.002945
     2  C   -0.022282  -0.004511  -0.017671  -0.009513
     3  C    0.003407   0.006854   0.001791   0.009490
     4  H   -0.000514   0.000000   0.000082  -0.000037
     5  H   -0.000441  -0.000016   0.000448  -0.000720
     6  H   -0.001127   0.000812  -0.000271  -0.000540
     7  H   -0.039004   0.000613  -0.001320   0.000195
     8  H    0.000613   0.004383  -0.002947   0.000765
     9  H   -0.001320  -0.002947   0.078963  -0.007864
    10  H    0.000195   0.000765  -0.007864   0.021282
 Mulliken charges and spin densities:
               1          2
     1  C   -0.560242   0.751960
     2  C   -0.413124   0.718715
     3  C   -0.578913  -0.115903
     4  H    0.222349  -0.055333
     5  H    0.218821  -0.059375
     6  H    0.275629  -0.262229
     7  H    0.227176  -0.052767
     8  H    0.204881   0.006067
     9  H    0.204558   0.052860
    10  H    0.198866   0.016005
 Sum of Mulliken charges =   0.00000   1.00000
 Mulliken charges and spin densities with hydrogens summed into heavy atoms:
               1          2
     1  C   -0.119072   0.637251
     2  C    0.089680   0.403719
     3  C    0.029392  -0.040970
 APT charges:
               1
     1  C   -1.105056
     2  C   -0.397421
     3  C   -1.334985
     4  H    0.517042
     5  H    0.389129
     6  H    0.263592
     7  H    0.451033
     8  H    0.457617
     9  H    0.388096
    10  H    0.370953
 Sum of APT charges =   0.00000
 APT charges with hydrogens summed into heavy atoms:
               1
     1  C   -0.198886
     2  C    0.317204
     3  C   -0.118319
 Electronic spatial extent (au):  <R**2>=            215.7459
 Charge=             -0.0000 electrons
 Dipole moment (field-independent basis, Debye):
    X=              0.0751    Y=              0.0488    Z=              0.1545  Tot=              0.1786
 Quadrupole moment (field-independent basis, Debye-Ang):
   XX=            -21.2899   YY=            -20.5098   ZZ=            -22.6547
   XY=             -0.4013   XZ=              0.1667   YZ=             -0.3947
 Traceless Quadrupole moment (field-independent basis, Debye-Ang):
   XX=              0.1949   YY=              0.9750   ZZ=             -1.1700
   XY=             -0.4013   XZ=              0.1667   YZ=             -0.3947
 Octapole moment (field-independent basis, Debye-Ang**2):
  XXX=              0.3238  YYY=             -0.3217  ZZZ=             -0.3806  XYY=             -0.3861
  XXY=              1.4691  XXZ=             -1.4620  XZZ=              1.2872  YZZ=             -0.3228
  YYZ=             -0.5353  XYZ=              0.0522
 Hexadecapole moment (field-independent basis, Debye-Ang**3):
 XXXX=           -197.4311 YYYY=            -54.2969 ZZZZ=            -36.4492 XXXY=             -1.1660
 XXXZ=              6.0072 YYYX=              1.0826 YYYZ=             -2.2867 ZZZX=             -1.0342
 ZZZY=             -0.1132 XXYY=            -42.5495 XXZZ=            -41.2236 YYZZ=            -16.6022
 XXYZ=              0.4257 YYXZ=              0.8462 ZZXY=             -1.3932
 N-N= 7.597822867897D+01 E-N=-4.230359098067D+02  KE= 1.166104665075D+02
  Exact polarizability:   0.000   0.000   0.000   0.000   0.000   0.000
 Approx polarizability:  28.360   2.367  25.662   0.205  -0.116  21.062
                          Isotropic Fermi Contact Couplings
        Atom                 a.u.       MegaHertz       Gauss      10(-4) cm-1
     1  C(13)              0.15426     173.41376      61.87834      57.84460
     2  C(13)              0.16625     186.90217      66.69134      62.34385
     3  C(13)             -0.02722     -30.60575     -10.92089     -10.20898
     4  H(1)              -0.01280     -57.21214     -20.41472     -19.08392
     5  H(1)              -0.01403     -62.72520     -22.38191     -20.92287
     6  H(1)              -0.06931    -309.81213    -110.54867    -103.34220
     7  H(1)              -0.01225     -54.76775     -19.54249     -18.26855
     8  H(1)               0.00220       9.81693       3.50292       3.27457
     9  H(1)               0.01677      74.93961      26.74031      24.99716
    10  H(1)               0.00560      25.02111       8.92816       8.34615
 --------------------------------------------------------
       Center         ----  Spin Dipole Couplings  ----
                      3XX-RR        3YY-RR        3ZZ-RR
 --------------------------------------------------------
     1   Atom       -0.303010     -0.286516      0.589526
     2   Atom       -0.315111     -0.296266      0.611377
     3   Atom        0.016327      0.001717     -0.018044
     4   Atom        0.030418     -0.025982     -0.004435
     5   Atom       -0.047598      0.059702     -0.012104
     6   Atom        0.044326     -0.048851      0.004525
     7   Atom       -0.046669      0.053290     -0.006621
     8   Atom        0.014097     -0.009063     -0.005034
     9   Atom        0.010934     -0.000949     -0.009985
    10   Atom        0.006174      0.000140     -0.006314
 --------------------------------------------------------
                        XY            XZ            YZ
 --------------------------------------------------------
     1   Atom       -0.024309     -0.111469      0.137773
     2   Atom       -0.014820     -0.083623      0.113910
     3   Atom       -0.004607      0.001438      0.000005
     4   Atom       -0.041164      0.021471     -0.006675
     5   Atom       -0.002400     -0.003402      0.000558
     6   Atom        0.082930     -0.010104      0.020007
     7   Atom       -0.002877     -0.002409     -0.021285
     8   Atom       -0.003643      0.000876     -0.001153
     9   Atom       -0.006246     -0.004353      0.000501
    10   Atom       -0.011250      0.004822      0.000198
 --------------------------------------------------------


 ---------------------------------------------------------------------------------
              Anisotropic Spin Dipole Couplings in Principal Axis System
 ---------------------------------------------------------------------------------

       Atom             a.u.   MegaHertz   Gauss  10(-4) cm-1        Axes

              Baa    -0.3208   -43.046   -15.360   -14.359  0.8741  0.4846  0.0337
     1 C(13)  Bbb    -0.3039   -40.777   -14.550   -13.602 -0.4703  0.8615 -0.1915
              Bcc     0.6247    83.823    29.910    27.960 -0.1218  0.1516  0.9809
 
              Baa    -0.3241   -43.494   -15.520   -14.508  0.9482  0.3144  0.0465
     2 C(13)  Bbb    -0.3089   -41.454   -14.792   -13.827 -0.3050  0.9414 -0.1442
              Bcc     0.6330    84.948    30.312    28.336 -0.0891  0.1226  0.9885
 
              Baa    -0.0181    -2.430    -0.867    -0.810 -0.0431 -0.0103  0.9990
     3 C(13)  Bbb     0.0004     0.053     0.019     0.018  0.2759  0.9609  0.0218
              Bcc     0.0177     2.377     0.848     0.793  0.9602 -0.2766  0.0386
 
              Baa    -0.0481   -25.671    -9.160    -8.563  0.4841  0.8687 -0.1052
     4 H(1)   Bbb    -0.0116    -6.207    -2.215    -2.070 -0.2383  0.2466  0.9394
              Bcc     0.0597    31.878    11.375    10.634  0.8419 -0.4297  0.3263
 
              Baa    -0.0480   -25.596    -9.133    -8.538  0.9953  0.0217  0.0941
     5 H(1)   Bbb    -0.0118    -6.290    -2.244    -2.098 -0.0938 -0.0109  0.9955
              Bcc     0.0598    31.886    11.378    10.636 -0.0226  0.9997  0.0088
 
              Baa    -0.1021   -54.464   -19.434   -18.167 -0.4931  0.8454 -0.2054
     6 H(1)   Bbb     0.0092     4.907     1.751     1.637 -0.1177  0.1691  0.9785
              Bcc     0.0929    49.556    17.683    16.530  0.8620  0.5067  0.0161
 
              Baa    -0.0470   -25.080    -8.949    -8.366  0.9954  0.0463  0.0838
     7 H(1)   Bbb    -0.0131    -6.997    -2.497    -2.334 -0.0939  0.3002  0.9492
              Bcc     0.0601    32.077    11.446    10.700 -0.0188  0.9528 -0.3032
 
              Baa    -0.0098    -5.248    -1.872    -1.750  0.1398  0.9683  0.2070
     8 H(1)   Bbb    -0.0049    -2.601    -0.928    -0.868 -0.0829 -0.1969  0.9769
              Bcc     0.0147     7.849     2.801     2.618  0.9867 -0.1537  0.0528
 
              Baa    -0.0109    -5.826    -2.079    -1.943  0.2188  0.0883  0.9718
     9 H(1)   Bbb    -0.0034    -1.825    -0.651    -0.609  0.3517  0.9218 -0.1629
              Bcc     0.0143     7.651     2.730     2.552  0.9102 -0.3774 -0.1706
 
              Baa    -0.0109    -5.799    -2.069    -1.934 -0.5502 -0.5731  0.6073
    10 H(1)   Bbb    -0.0046    -2.443    -0.872    -0.815  0.2556  0.5768  0.7758
              Bcc     0.0154     8.242     2.941     2.749  0.7950 -0.5821  0.1709
 

 ---------------------------------------------------------------------------------

 No NMR shielding tensors so no spin-rotation constants.
 Leave Link  601 at Sun May 22 09:31:28 2022, MaxMem=   939524096 cpu:         1.9
 (Enter /Local/ce_dana/g09/l701.exe)
 Compute integral second derivatives.
 ... and contract with generalized density number  0.
 Leave Link  701 at Sun May 22 09:31:28 2022, MaxMem=   939524096 cpu:         1.1
 (Enter /Local/ce_dana/g09/l702.exe)
 L702 exits ... SP integral derivatives will be done elsewhere.
 Leave Link  702 at Sun May 22 09:31:29 2022, MaxMem=   939524096 cpu:         0.0
 (Enter /Local/ce_dana/g09/l703.exe)
 Compute integral second derivatives, UseDBF=F ICtDFT=           0.
 Integral derivatives from FoFJK, PRISM(SPDF).
 Calling FoFJK, ICntrl=    100147 FMM=F ISym2X=0 I1Cent= 0 IOpClX= 1 NMat=1 NMatS=1 NMatT=0.
 FoFJK:  IHMeth= 1 ICntrl=  100147 DoSepK=F KAlg= 0 I1Cent=   0 FoldK=F
 IRaf=         0 NMat=   1 IRICut=       1 DoRegI=T DoRafI=F ISym2E= 0.
 FoFCou: FMM=F IPFlag=           0 FMFlag=      100000 FMFlg1=         800
         NFxFlg=           0 DoJE=F BraDBF=F KetDBF=F FulRan=T
         wScrn=  0.000000 ICntrl=  100147 IOpCl=  1 I1Cent=           0 NGrid=           0
         NMat0=    1 NMatS0=      1 NMatT0=    0 NMatD0=    1 NMtDS0=    0 NMtDT0=    0
 Symmetry not used in FoFCou.
 Leave Link  703 at Sun May 22 09:31:29 2022, MaxMem=   939524096 cpu:         0.7
 (Enter /Local/ce_dana/g09/l716.exe)
 Dipole        = 2.95318282D-02 1.91881994D-02 6.07894326D-02
 Polarizability= 0.00000000D+00 0.00000000D+00 0.00000000D+00
                 0.00000000D+00 0.00000000D+00 0.00000000D+00
 ***** Axes restored to original set *****
 -------------------------------------------------------------------
 Center     Atomic                   Forces (Hartrees/Bohr)
 Number     Number              X              Y              Z
 -------------------------------------------------------------------
      1        6           0.009966912    0.020526146   -0.008553888
      2        6          -0.006678663   -0.017337669   -0.013876367
      3        6          -0.010565291    0.006263648    0.013231231
      4        1          -0.006016200    0.000233297    0.013454644
      5        1          -0.002066729   -0.012088278   -0.008177167
      6        1           0.003497912   -0.004239550    0.004143149
      7        1           0.003037932    0.010586107    0.009740901
      8        1           0.004797801    0.008926314   -0.004541013
      9        1           0.008744804   -0.007217655    0.002572837
     10        1          -0.004718479   -0.005652361   -0.007994327
 -------------------------------------------------------------------
 Cartesian Forces:  Max     0.020526146 RMS     0.009187365
 Force constants in Cartesian coordinates: 
                1             2             3             4             5 
      1  0.278000D+00
      2  0.197083D+00  0.396441D+00
      3 -0.184479D+00  0.183416D+00  0.508663D+00
      4 -0.639873D-01 -0.282234D+00  0.172911D+00  0.241140D+00
      5 -0.126833D+00 -0.148323D+00  0.675440D-02  0.165532D+00  0.468592D+00
      6  0.794719D-01 -0.113625D-01 -0.630845D-01 -0.144737D+00  0.142423D+00
      7 -0.124371D-01  0.201442D-03  0.976340D-02 -0.136682D+00  0.615029D-02
      8 -0.159066D-01  0.712565D-02  0.305481D-01  0.374354D-02 -0.964485D-01
      9  0.374080D-02 -0.898819D-02 -0.824813D-02  0.678848D-01 -0.232674D-01
     10 -0.735214D-01 -0.183128D-01  0.932702D-01 -0.945039D-02  0.111813D-01
     11 -0.554165D-02 -0.575861D-01 -0.123718D-01 -0.858019D-02 -0.363932D-02
     12  0.988394D-01 -0.147673D-01 -0.305439D+00 -0.130217D-05  0.148002D-02
     13 -0.454083D-01 -0.293812D-01  0.930319D-02 -0.195044D-02 -0.215257D-01
     14 -0.291342D-01 -0.251056D+00 -0.128108D+00 -0.290390D-02 -0.144986D-01
     15 -0.371716D-02 -0.129501D+00 -0.135715D+00  0.207731D-02  0.107104D-01
     16 -0.746033D-01  0.145392D+00 -0.969911D-01  0.679394D-01  0.127247D-01
     17 -0.202320D-01  0.684648D-01 -0.588386D-01  0.176358D+00 -0.322610D-01
     18  0.383523D-02 -0.320049D-01 -0.536586D-02 -0.930414D-01  0.786051D-02
     19 -0.854112D-02 -0.126859D-01 -0.741408D-02 -0.747194D-01 -0.571908D-01
     20 -0.225893D-02 -0.198186D-01 -0.191180D-01 -0.632854D-01 -0.172714D+00
     21  0.299008D-02  0.130736D-01  0.131279D-01 -0.370874D-01 -0.134687D+00
     22 -0.789340D-03  0.131460D-02  0.540511D-02 -0.133219D-01 -0.209667D-01
     23  0.114262D-02  0.145118D-03 -0.134636D-02  0.504068D-02  0.102967D-01
     24  0.122352D-02 -0.303705D-02 -0.431316D-02  0.143149D-01  0.270259D-01
     25  0.261188D-03 -0.295065D-02 -0.454630D-03 -0.219089D-01  0.165386D-01
     26  0.139553D-02  0.335216D-02 -0.153850D-02  0.821436D-02 -0.458385D-02
     27 -0.104620D-02  0.241017D-02  0.693237D-03  0.290971D-01 -0.209924D-01
     28  0.102624D-02  0.157318D-02 -0.131379D-02  0.129414D-01  0.143884D-01
     29  0.284538D-03  0.125482D-02  0.603165D-03 -0.188560D-02 -0.642029D-02
     30 -0.858623D-03  0.761581D-03 -0.319493D-03 -0.114180D-01 -0.173079D-01
                6             7             8             9            10 
      6  0.488949D+00
      7  0.726176D-01  0.541977D+00
      8 -0.355103D-01  0.344140D-01  0.581162D+00
      9 -0.170084D+00  0.148622D-01 -0.591324D-02  0.547212D+00
     10  0.255920D-01 -0.143568D-02 -0.630960D-02  0.198308D-02  0.758080D-01
     11  0.188363D-01  0.459621D-03 -0.317334D-02 -0.105802D-02  0.120224D-01
     12  0.603673D-03 -0.133618D-02  0.116563D-02  0.106471D-02 -0.105856D+00
     13 -0.224367D-01  0.207956D-02  0.104148D-02 -0.117608D-02  0.141211D-02
     14 -0.677491D-02 -0.832161D-03  0.140997D-02 -0.183610D-02 -0.165325D-03
     15  0.163681D-03  0.944371D-03  0.446010D-03  0.154346D-02 -0.337084D-02
     16  0.394399D-02 -0.602465D-02  0.574380D-02  0.156939D-02  0.707572D-02
     17  0.318651D-01  0.153033D-02 -0.395521D-03  0.501127D-02 -0.459764D-05
     18 -0.459522D-01  0.133780D-01 -0.907397D-02  0.547765D-02 -0.115655D-01
     19 -0.446330D-01  0.109140D-01  0.149972D-01  0.170224D-01  0.110171D-02
     20 -0.126176D+00 -0.279475D-02 -0.101250D-02 -0.153384D-02  0.112298D-02
     21 -0.185170D+00 -0.104337D-01 -0.139689D-01 -0.124496D-01 -0.822548D-03
     22  0.755904D-02 -0.961872D-01 -0.783078D-01  0.341236D-01 -0.118418D-02
     23 -0.506572D-02 -0.813650D-01 -0.237531D+00  0.759862D-01  0.404494D-03
     24 -0.104131D-01  0.334374D-01  0.728258D-01 -0.944245D-01  0.134874D-02
     25 -0.584125D-04 -0.185124D+00  0.979247D-01 -0.544243D-01  0.142960D-03
     26 -0.168948D-02  0.976026D-01 -0.139012D+00  0.432473D-01  0.416335D-04
     27  0.779393D-02 -0.500769D-01  0.404786D-01 -0.805895D-01 -0.449654D-03
     28  0.226802D-01 -0.117079D+00 -0.573408D-01 -0.855858D-01  0.511341D-04
     29 -0.654554D-02 -0.553664D-01 -0.112124D+00 -0.816480D-01  0.194822D-04
     30 -0.228059D-01 -0.831562D-01 -0.809977D-01 -0.189502D+00 -0.129398D-03
               11            12            13            14            15 
     11  0.544297D-01
     12  0.128537D-01  0.316320D+00
     13  0.902297D-02  0.381105D-02  0.435746D-01
     14  0.495467D-02  0.311641D-02  0.354749D-01  0.262892D+00
     15 -0.254236D-01 -0.882605D-02  0.633120D-03  0.137367D+00  0.138090D+00
     16 -0.543330D-02  0.336084D-02  0.273842D-02 -0.214101D-02  0.296633D-02
     17  0.330366D-02 -0.397924D-02  0.100888D-01 -0.323300D-02  0.563585D-02
     18  0.651039D-02 -0.510367D-02  0.702771D-02 -0.822911D-02  0.473497D-02
     19 -0.135722D-02  0.122682D-02 -0.242465D-02  0.171949D-03  0.712120D-03
     20  0.113888D-02  0.501608D-03 -0.486966D-02 -0.129900D-02  0.914328D-03
     21 -0.697371D-03  0.126420D-02  0.268917D-02  0.257297D-02 -0.280891D-04
     22 -0.668731D-03  0.216302D-03  0.282908D-03  0.300427D-03 -0.182114D-03
     23  0.228154D-03 -0.741047D-04  0.294054D-03  0.180059D-03  0.000000D+00
     24  0.813282D-03 -0.319084D-04 -0.170329D-03  0.148847D-03  0.284581D-04
     25 -0.174268D-03  0.417877D-05 -0.414058D-03 -0.596474D-03  0.344313D-04
     26  0.206784D-03 -0.152364D-03 -0.679157D-04  0.283020D-03 -0.315719D-03
     27  0.753337D-04 -0.772094D-04 -0.218813D-03  0.555755D-03  0.667829D-04
     28  0.250346D-03 -0.264958D-03  0.109931D-03 -0.174218D-03 -0.975725D-04
     29  0.136889D-03 -0.144372D-03 -0.778441D-04  0.366814D-03  0.166513D-03
     30  0.461716D-03  0.225248D-03  0.537648D-03  0.118739D-02 -0.591041D-04
               16            17            18            19            20 
     16 -0.181430D-03
     17 -0.157325D+00 -0.420199D-01
     18  0.859293D-01  0.299896D-01  0.515063D-01
     19  0.698716D-03 -0.111283D-01 -0.715539D-02  0.744331D-01
     20  0.433276D-02  0.806436D-02  0.440319D-02  0.667991D-01  0.184195D+00
     21 -0.410865D-03 -0.599372D-02 -0.492752D-02  0.390460D-01  0.140321D+00
     22  0.109915D-02 -0.434809D-03 -0.535880D-03  0.757028D-03  0.434458D-03
     23 -0.144807D-03  0.298420D-03 -0.311485D-05 -0.342271D-03  0.670132D-03
     24  0.300936D-03 -0.355750D-04  0.444692D-03 -0.958324D-03 -0.144448D-03
     25  0.187933D-02  0.164904D-02  0.170154D-02  0.287346D-03  0.414581D-04
     26 -0.247563D-02 -0.143391D-02  0.492849D-03 -0.192721D-03 -0.261776D-03
     27 -0.216525D-04 -0.205923D-02 -0.195664D-02 -0.982173D-03  0.239049D-03
     28 -0.621376D-03 -0.500877D-03  0.426407D-03 -0.250673D-02  0.478000D-03
     29 -0.672882D-03 -0.787862D-03  0.545320D-04  0.929073D-03  0.103734D-02
     30 -0.647169D-03 -0.159552D-02  0.114228D-02  0.313565D-02  0.593416D-03
               21            22            23            24            25 
     21  0.190635D+00
     22 -0.277412D-03  0.104883D+00
     23  0.838592D-03  0.892741D-01  0.260783D+00
     24  0.394672D-03 -0.431280D-01 -0.837478D-01  0.101254D+00
     25  0.571337D-03  0.124497D-01 -0.823819D-02  0.419673D-02  0.207820D+00
     26 -0.366310D-03  0.249020D-01 -0.198835D-01  0.110157D-01 -0.115545D+00
     27  0.903984D-04 -0.103529D-01  0.746366D-02 -0.489183D-02  0.557319D-01
     28  0.373540D-02 -0.798937D-02 -0.606570D-02 -0.105656D-01 -0.153927D-01
     29 -0.109296D-02 -0.158476D-01 -0.151878D-01 -0.248646D-01  0.113509D-01
     30 -0.293674D-02  0.717228D-02  0.594830D-02  0.119531D-01 -0.730270D-02
               26            27            28            29            30 
     26  0.150063D+00
     27 -0.457109D-01  0.884559D-01
     28 -0.138747D-01 -0.216807D-01  0.129460D+00
     29  0.112709D-01  0.175399D-01  0.612664D-01  0.120454D+00
     30 -0.498260D-02 -0.958504D-02  0.926665D-01  0.959313D-01  0.211887D+00
 FormGI is forming the generalized inverse of G from B-inverse, IUseBI=4.
 Force constants in internal coordinates: 
                1             2             3             4             5 
      1  0.308716D+00
      2  0.240586D-02  0.356448D+00
      3  0.299314D-02  0.112541D-02  0.354290D+00
      4  0.569148D-02 -0.912083D-03  0.134017D-02  0.324258D+00
      5  0.701762D-01 -0.617351D-03 -0.737679D-03  0.231213D-02  0.456148D-01
      6  0.604784D-02  0.126110D-02 -0.996814D-03  0.360296D-02 -0.244745D-02
      7 -0.330326D-03  0.246753D-03 -0.175319D-03  0.629454D-02 -0.121133D-03
      8  0.407613D-02  0.781690D-04  0.295516D-03  0.124791D-01 -0.284191D-02
      9  0.273588D-02 -0.681931D-05  0.852930D-03  0.714659D-02 -0.796217D-03
     10  0.108300D-01  0.471103D-02 -0.112931D-01  0.331584D-02  0.980937D-03
     11  0.125986D-01 -0.105958D-01  0.592531D-02 -0.300999D-02 -0.302868D-03
     12 -0.241131D-01  0.633772D-02  0.578244D-02 -0.877742D-04  0.146270D-02
     13  0.342912D-01  0.448249D-02 -0.305412D-02  0.120492D-01 -0.578088D-01
     14 -0.657271D-01 -0.296416D-02 -0.222991D-02 -0.582790D-02  0.149317D+00
     15  0.693119D-02 -0.265888D-02  0.369316D-02 -0.170582D-01  0.103683D-01
     16  0.361158D-01  0.495683D-03  0.180314D-02  0.597207D-02 -0.711755D-01
     17 -0.322287D-01 -0.123555D-02 -0.376648D-03  0.620014D-02  0.279672D-01
     18  0.120909D-01  0.114470D-02 -0.422995D-03 -0.872025D-02 -0.104666D-01
     19  0.491959D-02  0.127824D-02 -0.257038D-03  0.203025D-01 -0.445879D-03
     20  0.160936D-02 -0.311390D-03  0.798782D-03  0.183411D-01 -0.127833D-02
     21 -0.336413D-02 -0.711008D-03  0.860533D-03  0.218051D-01  0.660060D-03
     22 -0.219023D-02 -0.369672D-03 -0.345716D-03 -0.212113D-01  0.801381D-03
     23 -0.727816D-03 -0.118768D-03 -0.468584D-03 -0.216388D-01 -0.332009D-03
     24 -0.536005D-03  0.196411D-03 -0.676968D-03 -0.219126D-01  0.677428D-03
     25 -0.174650D-02 -0.270056D-02 -0.594881D-03 -0.344969D-02  0.118962D-01
     26 -0.119497D-02  0.421959D-03 -0.367330D-02 -0.194412D-02  0.784466D-02
     27  0.137965D-01 -0.153063D-02  0.679272D-04  0.841357D-03 -0.316034D-01
     28 -0.863361D-02  0.130686D-05  0.192560D-02 -0.274533D-02  0.193525D-01
     29 -0.808208D-02  0.312382D-02 -0.115283D-02 -0.123975D-02  0.153010D-01
     30  0.690939D-02  0.117124D-02  0.258840D-02  0.154573D-02 -0.241471D-01
     31  0.263347D-01  0.920559D-03  0.160422D-02 -0.596468D-03 -0.604976D-01
     32  0.246236D-01  0.729619D-03  0.166668D-02 -0.241717D-03 -0.603241D-01
     33  0.264508D-01  0.115460D-02  0.142758D-02  0.937225D-03 -0.607696D-01
     34 -0.276576D-01 -0.104636D-02 -0.131668D-02 -0.146776D-02  0.727594D-01
     35 -0.293687D-01 -0.123730D-02 -0.125421D-02 -0.111301D-02  0.729328D-01
     36 -0.275415D-01 -0.812319D-03 -0.149331D-02  0.659330D-04  0.724873D-01
     37  0.894482D-03  0.101055D-05  0.144890D-04  0.285176D-03 -0.111860D-01
     38 -0.816586D-03 -0.189930D-03  0.769557D-04  0.639927D-03 -0.110125D-01
     39  0.101062D-02  0.235048D-03 -0.162144D-03  0.181887D-02 -0.114581D-01
                6             7             8             9            10 
      6  0.348193D+00
      7  0.939439D-03  0.338625D+00
      8  0.646244D-03  0.494066D-02  0.320378D+00
      9 -0.574799D-03  0.411659D-02  0.518690D-02  0.333024D+00
     10 -0.183583D-02  0.120458D-02 -0.779712D-04  0.111427D-03  0.923058D-01
     11  0.280911D-02 -0.101450D-02  0.607658D-03  0.588817D-03 -0.491321D-01
     12 -0.780811D-03 -0.157111D-03 -0.512385D-03 -0.711091D-03 -0.399991D-01
     13 -0.870947D-02  0.354231D-02 -0.177142D-02 -0.350524D-02  0.146002D-01
     14  0.204705D-02 -0.362094D-03  0.156584D-02  0.251889D-02 -0.555906D-02
     15  0.492414D-02 -0.178077D-02  0.604590D-03 -0.139386D-03 -0.112617D-01
     16 -0.479134D-02  0.663915D-03 -0.437853D-03 -0.215644D-02  0.404597D-02
     17  0.394747D-02 -0.156059D-02  0.802567D-03  0.326598D-02 -0.217334D-02
     18  0.952349D-03  0.158105D-03 -0.466698D-03 -0.905001D-03 -0.142035D-02
     19 -0.108971D-02  0.204449D-02 -0.703113D-02 -0.741329D-02  0.407493D-02
     20 -0.208491D-03 -0.738608D-02  0.110145D-02 -0.786124D-02 -0.130312D-02
     21  0.343962D-02 -0.722784D-02 -0.730937D-02  0.313515D-02 -0.882097D-03
     22  0.150422D-03  0.654570D-02  0.664971D-02  0.754193D-03 -0.121209D-02
     23 -0.104589D-02  0.626102D-02  0.262468D-03  0.593410D-02 -0.123374D-02
     24 -0.137423D-02  0.471730D-03  0.736567D-02  0.641326D-02  0.373347D-03
     25 -0.213345D-03 -0.614392D-03  0.636512D-03  0.296593D-03 -0.684520D-02
     26  0.230857D-03  0.660203D-03 -0.453481D-03  0.483311D-04 -0.154933D-02
     27  0.128407D-02 -0.513915D-03 -0.997966D-04  0.117955D-03 -0.457885D-02
     28  0.290926D-03 -0.537371D-03  0.598024D-03  0.125501D-03 -0.405009D-02
     29  0.735129D-03  0.737224D-03 -0.491969D-03 -0.122761D-03  0.124578D-02
     30  0.178834D-02 -0.436894D-03 -0.138285D-03 -0.531376D-04 -0.178374D-02
     31  0.889135D-03 -0.432974D-03  0.406672D-02 -0.524301D-02  0.170732D-03
     32  0.159324D-02 -0.506678D-02 -0.363430D-03  0.438469D-02 -0.178472D-03
     33  0.119882D-02  0.394811D-02 -0.555215D-02 -0.575877D-03  0.788560D-03
     34 -0.127402D-02  0.502569D-03  0.522237D-02 -0.416549D-02 -0.344412D-03
     35 -0.569919D-03 -0.413124D-02  0.792214D-03  0.546221D-02 -0.693617D-03
     36 -0.964333D-03  0.488365D-02 -0.439651D-02  0.501638D-03  0.273415D-03
     37 -0.766435D-03 -0.526994D-03  0.488764D-02 -0.422492D-02 -0.206788D-03
     38 -0.623343D-04 -0.516080D-02  0.457490D-03  0.540278D-02 -0.555993D-03
     39 -0.456748D-03  0.385409D-02 -0.473123D-02  0.442214D-03  0.411039D-03
               11            12            13            14            15 
     11  0.936217D-01
     12 -0.414165D-01  0.767856D-01
     13 -0.104687D-01 -0.280405D-02  0.826979D-01
     14 -0.194044D-04  0.333099D-02  0.999297D-02 -0.676255D-01
     15  0.123327D-01 -0.111680D-02 -0.519499D-01  0.921795D-03  0.777419D-01
     16 -0.891938D-03 -0.210315D-02  0.586435D-02  0.247780D-01  0.427712D-02
     17 -0.196125D-02  0.327587D-02 -0.301938D-01 -0.158942D-02 -0.273835D-01
     18  0.277003D-02 -0.109918D-02  0.381344D-02  0.468310D-02  0.178389D-01
     19 -0.222288D-02 -0.148480D-02  0.163159D-01 -0.375270D-02 -0.589535D-02
     20  0.802607D-03  0.240200D-03 -0.716216D-02  0.284554D-02  0.575194D-02
     21  0.945952D-03 -0.829309D-04 -0.849422D-02  0.207220D-02 -0.317220D-02
     22  0.589198D-03  0.546778D-03 -0.324465D-02  0.410638D-03  0.562357D-03
     23  0.236532D-03  0.860716D-03 -0.306468D-02  0.478500D-03  0.350651D-02
     24 -0.285803D-03  0.269313D-04  0.539012D-02 -0.208613D-02 -0.453316D-03
     25  0.318920D-02  0.935995D-03 -0.116082D-01 -0.432792D-02  0.155155D-01
     26 -0.149303D-02  0.664814D-03  0.227168D-01 -0.191538D-02 -0.193662D-01
     27  0.269745D-02  0.477882D-04 -0.186820D-01  0.195433D-01  0.615165D-02
     28  0.583694D-02  0.363574D-04 -0.773110D-02 -0.112218D-01  0.151876D-01
     29  0.115471D-02 -0.234824D-03  0.265939D-01 -0.880924D-02 -0.196940D-01
     30  0.534518D-02 -0.851849D-03 -0.148049D-01  0.126495D-01  0.582381D-02
     31  0.224218D-02 -0.144024D-02 -0.175089D-01  0.309988D-01  0.103195D-01
     32  0.246081D-02 -0.128388D-02 -0.196092D-01  0.310757D-01  0.965230D-02
     33  0.167082D-02 -0.142124D-02 -0.160983D-01  0.304672D-01  0.852477D-02
     34 -0.140815D-02  0.854386D-03  0.226925D-01 -0.373749D-01 -0.311492D-02
     35 -0.118952D-02  0.101074D-02  0.205922D-01 -0.372980D-01 -0.378215D-02
     36 -0.197951D-02  0.873384D-03  0.241031D-01 -0.379064D-01 -0.490969D-02
     37 -0.458606D-03  0.525620D-03 -0.619323D-02  0.586332D-02 -0.396190D-02
     38 -0.239979D-03  0.681976D-03 -0.829350D-02  0.594020D-02 -0.462913D-02
     39 -0.102996D-02  0.544618D-03 -0.478258D-02  0.533179D-02 -0.575667D-02
               16            17            18            19            20 
     16  0.987898D-02
     17 -0.148913D-01  0.580951D-01
     18 -0.876206D-02 -0.224226D-01  0.218360D-01
     19  0.377720D-02 -0.921557D-02  0.226278D-02  0.124207D+00
     20  0.210202D-02 -0.202154D-03 -0.102653D-02 -0.248370D-01  0.121730D+00
     21 -0.481729D-02  0.115474D-01 -0.368144D-02 -0.258521D-01 -0.223091D-01
     22 -0.232803D-02  0.289201D-02 -0.535814D-04 -0.486170D-01 -0.483301D-01
     23  0.140276D-03 -0.804362D-03  0.769582D-03 -0.482240D-01  0.166280D-01
     24  0.100800D-02 -0.423785D-02  0.186117D-02  0.169080D-01 -0.476029D-01
     25  0.630205D-02 -0.494399D-02  0.179460D-02 -0.296551D-02  0.455005D-02
     26 -0.136935D-01 -0.192470D-02  0.132191D-01  0.286540D-02 -0.336370D-02
     27 -0.964928D-02  0.102389D-01 -0.540336D-02 -0.223214D-02  0.422752D-03
     28  0.941770D-02 -0.719942D-02  0.243209D-02 -0.202699D-02  0.372623D-02
     29 -0.105778D-01 -0.418014D-02  0.138566D-01  0.380392D-02 -0.418753D-02
     30 -0.653363D-02  0.798346D-02 -0.476587D-02 -0.129363D-02 -0.401078D-03
     31 -0.151234D-01  0.334817D-02 -0.286713D-03 -0.456023D-03  0.413447D-02
     32 -0.162142D-01  0.614119D-02 -0.106203D-02 -0.654528D-02 -0.179934D-02
     33 -0.156988D-01  0.401693D-02 -0.309154D-03  0.550568D-02 -0.729517D-02
     34  0.204338D-01 -0.139155D-01  0.305916D-02  0.163107D-02  0.615235D-02
     35  0.193430D-01 -0.111225D-01  0.228384D-02 -0.445819D-02  0.218542D-03
     36  0.198584D-01 -0.132468D-01  0.303672D-02  0.759277D-02 -0.527729D-02
     37 -0.333357D-02  0.808267D-02 -0.234419D-02 -0.217562D-02  0.705744D-02
     38 -0.442441D-02  0.108757D-01 -0.311951D-02 -0.826488D-02  0.112364D-02
     39 -0.390899D-02  0.875143D-02 -0.236663D-02  0.378608D-02 -0.437220D-02
               21            22            23            24            25 
     21  0.127403D+00
     22  0.163720D-01  0.629589D-01
     23 -0.505175D-01  0.119774D-01  0.636365D-01
     24 -0.501027D-01  0.115102D-01  0.124564D-01  0.623104D-01
     25 -0.100173D-02 -0.639656D-03  0.133742D-02 -0.127990D-02  0.112206D-01
     26 -0.414707D-03  0.375207D-03 -0.756375D-03  0.131540D-02 -0.153358D-02
     27  0.148459D-02  0.632921D-03  0.265795D-03 -0.520926D-03  0.761116D-02
     28 -0.107853D-02 -0.787806D-03  0.104607D-02 -0.891917D-03  0.229299D-02
     29 -0.491510D-03  0.227057D-03 -0.104773D-02  0.170338D-02 -0.104612D-01
     30  0.140779D-02  0.484771D-03 -0.255620D-04 -0.132940D-03 -0.131649D-02
     31 -0.551019D-02  0.762819D-02 -0.640335D-02  0.739072D-03  0.291116D-02
     32  0.692006D-02 -0.571262D-02 -0.837338D-04  0.755482D-02  0.260057D-02
     33  0.899957D-03  0.828680D-03  0.650991D-02 -0.661414D-02  0.187703D-02
     34 -0.758612D-02  0.618337D-02 -0.673027D-02  0.315356D-03 -0.342116D-02
     35  0.484413D-02 -0.715743D-02 -0.410652D-03  0.713110D-02 -0.373174D-02
     36 -0.117597D-02 -0.616138D-03  0.618299D-02 -0.703786D-02 -0.445528D-02
     37 -0.452418D-02  0.690736D-02 -0.627402D-02 -0.983880D-03  0.197864D-02
     38  0.790607D-02 -0.643345D-02  0.455936D-04  0.583187D-02  0.166806D-02
     39  0.188597D-02  0.107850D-03  0.663924D-02 -0.833710D-02  0.944518D-03
               26            27            28            29            30 
     26  0.295958D-01
     27  0.130995D-02  0.431144D-02
     28 -0.938062D-02  0.148255D-02  0.843069D-02
     29  0.217488D-01 -0.481865D-02 -0.324291D-02  0.289671D-01
     30 -0.653708D-02 -0.181716D-02  0.762026D-02  0.239966D-02  0.711959D-02
     31 -0.555077D-03 -0.604095D-02  0.590225D-02  0.243602D-02 -0.304985D-02
     32 -0.664486D-03 -0.560697D-02  0.570884D-02  0.244378D-02 -0.249870D-02
     33  0.165135D-03 -0.620529D-02  0.508938D-02  0.337749D-02 -0.299294D-02
     34 -0.119357D-02  0.779278D-02 -0.627240D-02 -0.404481D-02  0.494153D-02
     35 -0.130298D-02  0.822676D-02 -0.646581D-02 -0.403705D-02  0.549269D-02
     36 -0.473355D-03  0.762843D-02 -0.708527D-02 -0.310335D-02  0.499844D-02
     37  0.325128D-03 -0.148783D-02  0.160961D-02 -0.439065D-04 -0.185686D-02
     38  0.215719D-03 -0.105385D-02  0.141620D-02 -0.361414D-04 -0.130571D-02
     39  0.104534D-02 -0.165217D-02  0.796739D-03  0.897561D-03 -0.179995D-02
               31            32            33            34            35 
     31 -0.254696D-02
     32 -0.148768D-01 -0.180042D-02
     33 -0.149043D-01 -0.146721D-01 -0.214270D-02
     34  0.232579D-01  0.993081D-02  0.104739D-01 -0.648674D-02
     35  0.109281D-01  0.230072D-01  0.107061D-01 -0.198138D-01 -0.773470D-02
     36  0.109006D-01  0.101355D-01  0.232354D-01 -0.192708D-01 -0.200359D-01
     37  0.520098D-02 -0.705969D-02 -0.748957D-02  0.899323D-02 -0.326743D-02
     38 -0.712887D-02  0.601672D-02 -0.725737D-02 -0.433388D-02  0.881172D-02
     39 -0.715634D-02 -0.685495D-02  0.527201D-02 -0.379082D-02 -0.348944D-02
               36            37            38            39 
     36 -0.693595D-02
     37 -0.369731D-02  0.116286D-01
     38 -0.446237D-02 -0.632092D-03  0.125135D-01
     39  0.863753D-02 -0.106197D-02 -0.760589D-03  0.113664D-01
 Leave Link  716 at Sun May 22 09:31:29 2022, MaxMem=   939524096 cpu:         0.1
 (Enter /Local/ce_dana/g09/l103.exe)

 GradGradGradGradGradGradGradGradGradGradGradGradGradGradGradGradGradGrad
 Berny optimization.
 Red2BG is reusing G-inverse.
 Internal  Forces:  Max     0.014714211 RMS     0.005588152
 Search for a saddle point.
 Step number   1 out of a maximum of  100
 All quantities printed in internal units (Hartrees-Bohrs-Radians)
 Swapping is turned off.
 Second derivative matrix not updated -- analytic derivatives used.
 ITU=  0
     Eigenvalues ---   -0.37130   0.00158   0.00902   0.01498   0.02376
     Eigenvalues ---    0.05366   0.05497   0.06099   0.10103   0.11535
     Eigenvalues ---    0.12609   0.14533   0.16028   0.18336   0.19117
     Eigenvalues ---    0.21807   0.31799   0.33217   0.33527   0.34113
     Eigenvalues ---    0.34822   0.35511   0.35646   0.35991
 Eigenvectors required to have negative eigenvalues:
                          R5        A5        D11       D12       D10
   1                    0.52381  -0.49916  -0.25473  -0.25443  -0.25349
                          A7        D7        D9        D8        R1
   1                    0.21615   0.21212   0.21118   0.21089  -0.18612
 RFO step:  Lambda0=1.176428593D-04 Lambda=-3.76198420D-03.
 Linear search not attempted -- option 19 set.
 Iteration  1 RMS(Cart)=  0.01894477 RMS(Int)=  0.00031427
 Iteration  2 RMS(Cart)=  0.00025802 RMS(Int)=  0.00007119
 Iteration  3 RMS(Cart)=  0.00000010 RMS(Int)=  0.00007119
 ITry= 1 IFail=0 DXMaxC= 5.45D-02 DCOld= 1.00D+10 DXMaxT= 3.00D-01 DXLimC= 3.00D+00 Rises=F
 Variable       Old X    -DE/DX   Delta X   Delta X   Delta X     New X
                                 (Linear)    (Quad)   (Total)
    R1        2.81752   0.00817   0.00000   0.02119   0.02119   2.83871
    R2        2.06258  -0.01471   0.00000  -0.04015  -0.04015   2.02243
    R3        2.06463  -0.01471   0.00000  -0.04118  -0.04118   2.02344
    R4        2.83048   0.00401   0.00000   0.01991   0.01991   2.85039
    R5        2.45307   0.00439   0.00000   0.04202   0.04202   2.49509
    R6        2.06758  -0.01466   0.00000  -0.04248  -0.04248   2.02510
    R7        2.07822  -0.01108   0.00000  -0.03142  -0.03142   2.04680
    R8        2.09156  -0.01160   0.00000  -0.03638  -0.03638   2.05518
    R9        2.08301  -0.01085   0.00000  -0.03291  -0.03291   2.05010
    A1        2.08914  -0.00084   0.00000  -0.01139  -0.01158   2.07756
    A2        2.07431   0.00006   0.00000  -0.00465  -0.00484   2.06947
    A3        2.07194   0.00044   0.00000   0.00622   0.00602   2.07795
    A4        2.10429  -0.00389   0.00000  -0.02140  -0.02150   2.08279
    A5        0.96534   0.00541   0.00000   0.00181   0.00161   0.96695
    A6        2.02998   0.00146   0.00000   0.00898   0.00890   2.03888
    A7        2.06401  -0.00330   0.00000  -0.01771  -0.01778   2.04623
    A8        2.07432   0.00156   0.00000   0.00537   0.00533   2.07965
    A9        1.93923   0.00031   0.00000   0.02490   0.02491   1.96415
   A10        1.95357  -0.00088   0.00000  -0.00918  -0.00923   1.94434
   A11        1.94131  -0.00062   0.00000  -0.00854  -0.00856   1.93275
   A12        1.94191  -0.00009   0.00000  -0.00522  -0.00524   1.93667
   A13        1.88056   0.00061   0.00000   0.00652   0.00646   1.88702
   A14        1.88035   0.00033   0.00000   0.00397   0.00393   1.88428
   A15        1.86213   0.00078   0.00000   0.01422   0.01422   1.87635
    D1       -2.71660   0.00118   0.00000   0.00265   0.00266  -2.71394
    D2        1.73283   0.00096   0.00000   0.01276   0.01273   1.74556
    D3        0.01510  -0.00067   0.00000  -0.01420  -0.01423   0.00087
    D4        0.09374   0.00013   0.00000  -0.02909  -0.02904   0.06470
    D5       -1.74002  -0.00009   0.00000  -0.01898  -0.01897  -1.75899
    D6        2.82544  -0.00171   0.00000  -0.04594  -0.04594   2.77951
    D7       -2.82319  -0.00199   0.00000  -0.00473  -0.00476  -2.82795
    D8        1.35525  -0.00173   0.00000  -0.00079  -0.00084   1.35441
    D9       -0.71828  -0.00224   0.00000  -0.00963  -0.00966  -0.72794
   D10       -1.70016   0.00199   0.00000  -0.01628  -0.01622  -1.71638
   D11        2.47827   0.00225   0.00000  -0.01234  -0.01230   2.46598
   D12        0.40475   0.00174   0.00000  -0.02118  -0.02112   0.38363
   D13        0.73849  -0.00003   0.00000   0.01193   0.01191   0.75041
   D14       -1.36626   0.00023   0.00000   0.01587   0.01584  -1.35042
   D15        2.84340  -0.00028   0.00000   0.00703   0.00702   2.85042
         Item               Value     Threshold  Converged?
 Maximum Force            0.014714     0.000450     NO 
 RMS     Force            0.005588     0.000300     NO 
 Maximum Displacement     0.054515     0.001800     NO 
 RMS     Displacement     0.018936     0.001200     NO 
 Predicted change in Energy=-1.856109D-03
 Lowest energy point so far.  Saving SCF results.
 GradGradGradGradGradGradGradGradGradGradGradGradGradGradGradGradGradGrad

 Leave Link  103 at Sun May 22 09:31:29 2022, MaxMem=   939524096 cpu:         0.0
 (Enter /Local/ce_dana/g09/l202.exe)
                          Input orientation:                          
 ---------------------------------------------------------------------
 Center     Atomic      Atomic             Coordinates (Angstroms)
 Number     Number       Type             X           Y           Z
 ---------------------------------------------------------------------
      1          6           0        1.070684    0.744418   -1.143377
      2          6           0        0.074148   -0.293959   -0.712978
      3          6           0       -0.852992    0.004196    0.438835
      4          1           0        1.437995    0.726764   -2.148438
      5          1           0        1.139374    1.652669   -0.580447
      6          1           0        1.367362   -0.341921   -0.451039
      7          1           0       -0.222756   -1.013696   -1.449340
      8          1           0       -1.285944   -0.902767    0.842712
      9          1           0       -1.664971    0.654292    0.121276
     10          1           0       -0.325385    0.509111    1.241100
 ---------------------------------------------------------------------
                    Distance matrix (angstroms):
                    1          2          3          4          5
     1  C    0.000000
     2  C    1.502183   0.000000
     3  C    2.598432   1.508362   0.000000
     4  H    1.070223   2.227667   3.530539   0.000000
     5  H    1.070761   2.222977   2.779553   1.845283   0.000000
     6  H    1.321923   1.320346   2.416949   2.007048   2.011744
     7  H    2.203988   1.071636   2.235733   2.505201   3.117671
     8  H    3.494490   2.154221   1.083119   4.361444   3.799710
[...]
 ! A9    A(6,2,7)              112.9658         -DE/DX =    0.0                 !
 ! A10   A(2,3,8)              111.399          -DE/DX =    0.0                 !
 ! A11   A(2,3,9)              110.7346         -DE/DX =    0.0                 !
 ! A12   A(2,3,10)             110.945          -DE/DX =    0.0                 !
 ! A13   A(8,3,9)              108.1188         -DE/DX =    0.0                 !
 ! A14   A(8,3,10)             107.9576         -DE/DX =    0.0                 !
 ! A15   A(9,3,10)             107.5373         -DE/DX =    0.0                 !
 ! D1    D(4,1,2,3)           -155.9587         -DE/DX =    0.0                 !
 ! D2    D(4,1,2,6)             99.8203         -DE/DX =    0.0                 !
 ! D3    D(4,1,2,7)             -0.6658         -DE/DX =    0.0                 !
 ! D4    D(5,1,2,3)              3.0943         -DE/DX =    0.0                 !
 ! D5    D(5,1,2,6)           -101.1267         -DE/DX =    0.0                 !
 ! D6    D(5,1,2,7)            158.3872         -DE/DX =    0.0                 !
 ! D7    D(1,2,3,8)           -162.4155         -DE/DX =    0.0                 !
 ! D8    D(1,2,3,9)             77.2203         -DE/DX =    0.0                 !
 ! D9    D(1,2,3,10)           -42.113          -DE/DX =    0.0                 !
 ! D10   D(6,2,3,8)            -98.823          -DE/DX =    0.0                 !
 ! D11   D(6,2,3,9)            140.8128         -DE/DX =    0.0                 !
 ! D12   D(6,2,3,10)            21.4796         -DE/DX =    0.0                 !
 ! D13   D(7,2,3,8)             42.8496         -DE/DX =    0.0                 !
 ! D14   D(7,2,3,9)            -77.5146         -DE/DX =    0.0                 !
 ! D15   D(7,2,3,10)           163.1521         -DE/DX =    0.0                 !
 --------------------------------------------------------------------------------
 Lowest energy point so far.  Saving SCF results.
 GradGradGradGradGradGradGradGradGradGradGradGradGradGradGradGradGradGrad

 Largest change from initial coordinates is atom    5       0.029 Angstoms.
 Leave Link  103 at Sun May 22 09:31:32 2022, MaxMem=   939524096 cpu:         0.0
 (Enter /Local/ce_dana/g09/l202.exe)
                          Input orientation:                          
 ---------------------------------------------------------------------
 Center     Atomic      Atomic             Coordinates (Angstroms)
 Number     Number       Type             X           Y           Z
 ---------------------------------------------------------------------
      1          6           0        1.069836    0.744932   -1.143254
      2          6           0        0.074733   -0.295991   -0.713630
      3          6           0       -0.851562    0.003636    0.439126
      4          1           0        1.442781    0.723474   -2.147298
      5          1           0        1.130213    1.658108   -0.585190
      6          1           0        1.367829   -0.340403   -0.446464
      7          1           0       -0.225144   -1.014555   -1.451703
      8          1           0       -1.289561   -0.902781    0.840309
      9          1           0       -1.660651    0.659309    0.122912
     10          1           0       -0.320960    0.503380    1.243496
 ---------------------------------------------------------------------
                    Distance matrix (angstroms):
                    1          2          3          4          5
     1  C    0.000000
     2  C    1.502774   0.000000
     3  C    2.597156   1.508855   0.000000
     4  H    1.071286   2.228513   3.531539   0.000000
     5  H    1.071901   2.224644   2.777397   1.847004   0.000000
     6  H    1.323732   1.321154   2.414194   2.007558   2.017363
     7  H    2.206334   1.072852   2.237039   2.507304   3.119449
     8  H    3.495173   2.155044   1.083689   4.363049   3.800725
     9  H    3.010991   2.150339   1.088359   3.845681   3.047611
    10  H    2.772946   2.150792   1.085492   3.828408   2.604494
                    6          7          8          9         10
     6  H    0.000000
     7  H    2.000637   0.000000
     8  H    3.005624   2.529584   0.000000
     9  H    3.239646   2.709596   1.758548   0.000000
    10  H    2.533760   3.094738   1.754433   1.753509   0.000000
 Stoichiometry    C3H7(2)
 Framework group  C1[X(C3H7)]
 Deg. of freedom    24
 Full point group                 C1      NOp   1
 RotChk:  IX=0 Diff= 1.42D-15
 Largest Abelian subgroup         C1      NOp   1
 Largest concise Abelian subgroup C1      NOp   1
                         Standard orientation:                         
 ---------------------------------------------------------------------
 Center     Atomic      Atomic             Coordinates (Angstroms)
 Number     Number       Type             X           Y           Z
 ---------------------------------------------------------------------
      1          6           0       -1.317288   -0.260819   -0.032638
      2          6           0       -0.041481    0.531329    0.023478
      3          6           0        1.279070   -0.197051   -0.023973
      4          1           0       -2.209628    0.216416   -0.384249
      5          1           0       -1.256224   -1.330754   -0.054542
      6          1           0       -0.820484    0.291169    1.063154
      7          1           0       -0.088157    1.550626   -0.307983
      8          1           0        2.089909    0.431147    0.325728
      9          1           0        1.509031   -0.512144   -1.040023
     10          1           0        1.253745   -1.087218    0.596715
 ---------------------------------------------------------------------
 Rotational constants (GHZ):     37.1245589      8.5777118      7.5881038
 Leave Link  202 at Sun May 22 09:31:32 2022, MaxMem=   939524096 cpu:         0.0
 (Enter /Local/ce_dana/g09/l601.exe)
 Copying SCF densities to generalized density rwf, IOpCl= 1 IROHF=0.

 **********************************************************************

            Population analysis using the SCF density.

 **********************************************************************

 Orbital symmetries:
 Alpha Orbitals:
       Occupied  (A) (A) (A) (A) (A) (A) (A) (A) (A) (A) (A) (A)
                 (A)
       Virtual   (A) (A) (A) (A) (A) (A) (A) (A) (A) (A) (A) (A)
                 (A) (A) (A) (A) (A) (A) (A) (A) (A) (A) (A) (A)
                 (A) (A) (A) (A)
 Beta  Orbitals:
       Occupied  (A) (A) (A) (A) (A) (A) (A) (A) (A) (A) (A) (A)
       Virtual   (A) (A) (A) (A) (A) (A) (A) (A) (A) (A) (A) (A)
                 (A) (A) (A) (A) (A) (A) (A) (A) (A) (A) (A) (A)
                 (A) (A) (A) (A) (A)
 The electronic state is 2-A.
 Alpha  occ. eigenvalues --  -11.17893 -11.16801 -11.15721  -1.08899  -0.94609
 Alpha  occ. eigenvalues --   -0.79124  -0.65039  -0.61020  -0.57415  -0.53476
 Alpha  occ. eigenvalues --   -0.50528  -0.45993  -0.26145
 Alpha virt. eigenvalues --    0.25853   0.29467   0.31698   0.32111   0.35821
 Alpha virt. eigenvalues --    0.36026   0.36523   0.45764   0.49257   0.87149
 Alpha virt. eigenvalues --    0.93166   0.94783   0.98702   0.99680   1.04128
 Alpha virt. eigenvalues --    1.10290   1.13851   1.26703   1.28197   1.33596
 Alpha virt. eigenvalues --    1.34737   1.37933   1.39583   1.42061   1.53931
 Alpha virt. eigenvalues --    1.88621   1.93147   2.26473
  Beta  occ. eigenvalues --  -11.16278 -11.15903 -11.15271  -1.04683  -0.92600
  Beta  occ. eigenvalues --   -0.74174  -0.63001  -0.58482  -0.55970  -0.52454
  Beta  occ. eigenvalues --   -0.49631  -0.40415
  Beta virt. eigenvalues --    0.17713   0.27330   0.30272   0.32371   0.33285
  Beta virt. eigenvalues --    0.36153   0.37141   0.38268   0.47942   0.50854
  Beta virt. eigenvalues --    0.87388   0.93981   0.95778   1.00242   1.05357
  Beta virt. eigenvalues --    1.09594   1.11539   1.15814   1.26540   1.29032
  Beta virt. eigenvalues --    1.34573   1.35539   1.38081   1.40305   1.42537
  Beta virt. eigenvalues --    1.54879   1.90304   1.95646   2.27450
          Condensed to atoms (all electrons):
               1          2          3          4          5          6
     1  C    5.769874   0.072409  -0.066848   0.374288   0.376537   0.062621
     2  C    0.072409   5.857310   0.234130  -0.036774  -0.039073   0.089389
     3  C   -0.066848   0.234130   5.316861   0.001983  -0.000665  -0.008820
     4  H    0.374288  -0.036774   0.001983   0.453588  -0.014475  -0.001885
     5  H    0.376537  -0.039073  -0.000665  -0.014475   0.454434  -0.001315
     6  H    0.062621   0.089389  -0.008820  -0.001885  -0.001315   0.596545
     7  H   -0.031853   0.382351  -0.025984  -0.001444   0.001455  -0.001461
     8  H    0.003288  -0.043870   0.380231  -0.000038  -0.000022  -0.001888
     9  H   -0.001167  -0.054215   0.373331   0.000020   0.000796   0.001707
    10  H    0.002895  -0.050197   0.382638  -0.000015   0.000700  -0.000813
               7          8          9         10
     1  C   -0.031853   0.003288  -0.001167   0.002895
     2  C    0.382351  -0.043870  -0.054215  -0.050197
     3  C   -0.025984   0.380231   0.373331   0.382638
     4  H   -0.001444  -0.000038   0.000020  -0.000015
     5  H    0.001455  -0.000022   0.000796   0.000700
     6  H   -0.001461  -0.001888   0.001707  -0.000813
     7  H    0.448616  -0.001729  -0.000607   0.002113
     8  H   -0.001729   0.508772  -0.028066  -0.024517
     9  H   -0.000607  -0.028066   0.528287  -0.029140
    10  H    0.002113  -0.024517  -0.029140   0.513711
          Atomic-Atomic Spin Densities.
               1          2          3          4          5          6
     1  C    1.102042  -0.359961   0.010716  -0.020883  -0.021646   0.023918
     2  C   -0.359961   1.153717  -0.052621   0.005417   0.006326   0.037564
     3  C    0.010716  -0.052621  -0.092224  -0.000417  -0.000111  -0.000188
     4  H   -0.020883   0.005417  -0.000417  -0.040659   0.002438  -0.000110
     5  H   -0.021646   0.006326  -0.000111   0.002438  -0.042402  -0.000257
     6  H    0.023918   0.037564  -0.000188  -0.000110  -0.000257  -0.335258
     7  H    0.007682  -0.022176   0.003417  -0.000487  -0.000484  -0.001792
     8  H    0.000085  -0.004371   0.006636   0.000001  -0.000016   0.000812
     9  H    0.001595  -0.017297   0.002432   0.000079   0.000508  -0.000309
    10  H    0.003075  -0.009264   0.009240  -0.000036  -0.000778  -0.000619
               7          8          9         10
     1  C    0.007682   0.000085   0.001595   0.003075
     2  C   -0.022176  -0.004371  -0.017297  -0.009264
     3  C    0.003417   0.006636   0.002432   0.009240
     4  H   -0.000487   0.000001   0.000079  -0.000036
     5  H   -0.000484  -0.000016   0.000508  -0.000778
     6  H   -0.001792   0.000812  -0.000309  -0.000619
     7  H   -0.037734   0.000621  -0.001358   0.000203
     8  H    0.000621   0.004042  -0.002727   0.000749
     9  H   -0.001358  -0.002727   0.072446  -0.007607
    10  H    0.000203   0.000749  -0.007607   0.020028
 Mulliken charges and spin densities:
               1          2
     1  C   -0.562043   0.746624
     2  C   -0.411460   0.737334
     3  C   -0.586858  -0.113118
     4  H    0.224751  -0.054658
     5  H    0.221627  -0.056420
     6  H    0.265920  -0.276238
     7  H    0.228541  -0.052107
     8  H    0.207841   0.005832
     9  H    0.209055   0.047761
    10  H    0.202626   0.014990
 Sum of Mulliken charges =   0.00000   1.00000
 Mulliken charges and spin densities with hydrogens summed into heavy atoms:
               1          2
     1  C   -0.115664   0.635546
     2  C    0.083002   0.408989
     3  C    0.032663  -0.044535
 Electronic spatial extent (au):  <R**2>=            214.9409
 Charge=              0.0000 electrons
 Dipole moment (field-independent basis, Debye):
    X=              0.0986    Y=              0.0387    Z=              0.0928  Tot=              0.1408
 Quadrupole moment (field-independent basis, Debye-Ang):
   XX=            -21.2913   YY=            -20.4950   ZZ=            -22.5210
   XY=             -0.4015   XZ=              0.2091   YZ=             -0.3850
 Traceless Quadrupole moment (field-independent basis, Debye-Ang):
   XX=              0.1445   YY=              0.9408   ZZ=             -1.0852
   XY=             -0.4015   XZ=              0.2091   YZ=             -0.3850
 Octapole moment (field-independent basis, Debye-Ang**2):
  XXX=              0.5577  YYY=             -0.3664  ZZZ=             -0.4663  XYY=             -0.3011
  XXY=              1.4263  XXZ=             -1.5565  XZZ=              1.2891  YZZ=             -0.3406
  YYZ=             -0.7218  XYZ=             -0.0488
 Hexadecapole moment (field-independent basis, Debye-Ang**3):
 XXXX=           -196.0627 YYYY=            -54.3194 ZZZZ=            -36.3105 XXXY=             -1.0990
 XXXZ=              5.9863 YYYX=              1.0294 YYYZ=             -2.2752 ZZZX=             -0.8493
 ZZZY=             -0.1530 XXYY=            -42.2865 XXZZ=            -40.8789 YYZZ=            -16.4712
 XXYZ=              0.4786 YYXZ=              0.9085 ZZXY=             -1.4018
 N-N= 7.609752314506D+01 E-N=-4.233674408931D+02  KE= 1.167128823837D+02
                          Isotropic Fermi Contact Couplings
        Atom                 a.u.       MegaHertz       Gauss      10(-4) cm-1
     1  C(13)              0.15310     172.11621      61.41534      57.41179
     2  C(13)              0.17138     192.66836      68.74886      64.26725
     3  C(13)             -0.02671     -30.02956     -10.71529     -10.01678
     4  H(1)              -0.01256     -56.12459     -20.02665     -18.72115
     5  H(1)              -0.01304     -58.28882     -20.79890     -19.44306
     6  H(1)              -0.07210    -322.27113    -114.99435    -107.49808
     7  H(1)              -0.01179     -52.68833     -18.80051     -17.57494
     8  H(1)               0.00212       9.48911       3.38595       3.16523
     9  H(1)               0.01559      69.66872      24.85953      23.23898
    10  H(1)               0.00532      23.79352       8.49012       7.93667
 --------------------------------------------------------
       Center         ----  Spin Dipole Couplings  ----
                      3XX-RR        3YY-RR        3ZZ-RR
 --------------------------------------------------------
     1   Atom       -0.301247     -0.289807      0.591054
     2   Atom       -0.318988     -0.299243      0.618231
     3   Atom        0.013087      0.001345     -0.014431
     4   Atom        0.030507     -0.026975     -0.003532
     5   Atom       -0.048365      0.059429     -0.011063
     6   Atom        0.037905     -0.045503      0.007598
     7   Atom       -0.049053      0.053925     -0.004872
     8   Atom        0.014473     -0.009300     -0.005173
     9   Atom        0.010738     -0.000966     -0.009773
    10   Atom        0.005971      0.000697     -0.006668
 --------------------------------------------------------
                        XY            XZ            YZ
 --------------------------------------------------------
     1   Atom       -0.022086     -0.108704      0.123400
     2   Atom       -0.017373     -0.083992      0.128652
     3   Atom       -0.003713      0.000117      0.000702
     4   Atom       -0.041248      0.021255     -0.007072
     5   Atom       -0.004020     -0.003522      0.002047
     6   Atom        0.081846     -0.011109      0.018329
     7   Atom       -0.003103     -0.002738     -0.022693
     8   Atom       -0.003912      0.000862     -0.001125
     9   Atom       -0.006755     -0.004741      0.000820
    10   Atom       -0.011359      0.005204     -0.000008
 --------------------------------------------------------


 ---------------------------------------------------------------------------------
              Anisotropic Spin Dipole Couplings in Principal Axis System
 ---------------------------------------------------------------------------------

       Atom             a.u.   MegaHertz   Gauss  10(-4) cm-1        Axes

              Baa    -0.3187   -42.763   -15.259   -14.264  0.8551  0.5174  0.0320
     1 C(13)  Bbb    -0.3026   -40.609   -14.490   -13.546 -0.5045  0.8449 -0.1780
              Bcc     0.6213    83.372    29.749    27.810 -0.1191  0.1361  0.9835
 
              Baa    -0.3293   -44.185   -15.766   -14.738  0.9030  0.4292  0.0218
     2 C(13)  Bbb    -0.3143   -42.172   -15.048   -14.067 -0.4205  0.8929 -0.1611
              Bcc     0.6435    86.357    30.814    28.805 -0.0886  0.1363  0.9867
 
              Baa    -0.0145    -1.941    -0.693    -0.647 -0.0106 -0.0468  0.9988
     3 C(13)  Bbb     0.0003     0.041     0.015     0.014  0.2782  0.9593  0.0479
              Bcc     0.0142     1.900     0.678     0.634  0.9605 -0.2784 -0.0029
 
              Baa    -0.0488   -26.049    -9.295    -8.689  0.4780  0.8740 -0.0878
     4 H(1)   Bbb    -0.0110    -5.846    -2.086    -1.950 -0.2512  0.2318  0.9398
              Bcc     0.0598    31.895    11.381    10.639  0.8417 -0.4271  0.3303
 
              Baa    -0.0488   -26.053    -9.296    -8.690  0.9952  0.0352  0.0909
     5 H(1)   Bbb    -0.0108    -5.771    -2.059    -1.925 -0.0897 -0.0341  0.9954
              Bcc     0.0596    31.824    11.356    10.615 -0.0382  0.9988  0.0308
 
              Baa    -0.0999   -53.318   -19.025   -17.785 -0.5123  0.8363 -0.1955
     6 H(1)   Bbb     0.0119     6.333     2.260     2.112 -0.1033  0.1660  0.9807
              Bcc     0.0881    46.985    16.765    15.672  0.8526  0.5226  0.0013
 
              Baa    -0.0494   -26.379    -9.413    -8.799  0.9951  0.0487  0.0859
     7 H(1)   Bbb    -0.0123    -6.542    -2.334    -2.182 -0.0970  0.3187  0.9429
              Bcc     0.0617    32.921    11.747    10.981 -0.0186  0.9466 -0.3219
 
              Baa    -0.0101    -5.400    -1.927    -1.801  0.1474  0.9697  0.1948
     8 H(1)   Bbb    -0.0050    -2.685    -0.958    -0.896 -0.0803 -0.1845  0.9795
              Bcc     0.0152     8.085     2.885     2.697  0.9858 -0.1600  0.0507
 
              Baa    -0.0109    -5.799    -2.069    -1.934  0.2381  0.0822  0.9678
     9 H(1)   Bbb    -0.0038    -2.050    -0.731    -0.684  0.3688  0.9141 -0.1684
              Bcc     0.0147     7.849     2.801     2.618  0.8985 -0.3970 -0.1873
 
              Baa    -0.0111    -5.916    -2.111    -1.973 -0.5496 -0.5294  0.6463
    10 H(1)   Bbb    -0.0047    -2.489    -0.888    -0.830  0.2862  0.6074  0.7410
              Bcc     0.0158     8.405     2.999     2.804  0.7848 -0.5923  0.1824
 

 ---------------------------------------------------------------------------------

 No NMR shielding tensors so no spin-rotation constants.
 Leave Link  601 at Sun May 22 09:31:32 2022, MaxMem=   939524096 cpu:         1.9
 (Enter /Local/ce_dana/g09/l9999.exe)

 Test job not archived.
 1\1\GINC-TECH-WN190\FTS\UHF\3-21G\C3H7(2)\ALONGD\22-May-2022\0\\#P opt
 =(ts, calcfc, noeigentest, maxcycles=100) guess=read uhf/3-21g IOp(2/9
 =2000) scf=xqc\\TS0\\0,2\C,1.0698362174,0.7449319369,-1.1432536078\C,0
 .074732798,-0.2959914494,-0.7136297725\C,-0.8515619574,0.0036355184,0.
 4391262054\H,1.4427810859,0.7234740133,-2.1472984288\H,1.1302134717,1.
 6581079824,-0.5851898763\H,1.3678293412,-0.3404028361,-0.4464643339\H,
 -0.2251441738,-1.014554762,-1.4517027572\H,-1.289560699,-0.9027811564,
 0.8403090181\H,-1.6606514199,0.6593087392,0.1229120506\H,-0.3209596641
 ,0.5033800138,1.2434955024\\Version=ES64L-G09RevD.01\State=2-A\HF=-116
 .8873773\S2=0.805897\S2-1=0.\S2A=0.750741\RMSD=5.235e-09\RMSF=5.164e-0
 6\Dipole=-0.0061671,-0.0392822,0.0385546\Quadrupole=-0.4473987,0.05439
 35,0.3930052,0.2970027,-0.315503,0.6360603\PG=C01 [X(C3H7)]\\@


 DESK:  A WASTEBASKET WITH DRAWERS.
 Job cpu time:       0 days  0 hours  0 minutes 24.9 seconds.
 File lengths (MBytes):  RWF=      8 Int=      0 D2E=      0 Chk=      1 Scr=      1
 Normal termination of Gaussian 09 at Sun May 22 09:31:33 2022.
