 Entering Gaussian System, Link 0=g16
 Initial command:
 /opt/g16/l1.exe "/scratch/alongd/g16/a19040-8465/Gau-7595.inp" -scrdir="/scratch/alongd/g16/a19040-8465/"
 Entering Link 1 = /opt/g16/l1.exe PID=      7597.
  
 Copyright (c) 1988-2017, Gaussian, Inc.  All Rights Reserved.
  
 This is part of the Gaussian(R) 16 program.  It is based on
 the Gaussian(R) 09 system (copyright 2009, Gaussian, Inc.),
 the Gaussian(R) 03 system (copyright 2003, Gaussian, Inc.),
 the Gaussian(R) 98 system (copyright 1998, Gaussian, Inc.),
 the Gaussian(R) 94 system (copyright 1995, Gaussian, Inc.),
 the Gaussian 92(TM) system (copyright 1992, Gaussian, Inc.),
 the Gaussian 90(TM) system (copyright 1990, Gaussian, Inc.),
 the Gaussian 88(TM) system (copyright 1988, Gaussian, Inc.),
 the Gaussian 86(TM) system (copyright 1986, Carnegie Mellon
 University), and the Gaussian 82(TM) system (copyright 1983,
 Carnegie Mellon University). Gaussian is a federally registered
 trademark of Gaussian, Inc.
  
 This software contains proprietary and confidential information,
 including trade secrets, belonging to Gaussian, Inc.
  
 This software is provided under written license and may be
 used, copied, transmitted, or stored only in accord with that
 written license.
  
 The following legend is applicable only to US Government
 contracts under FAR:
  
                    RESTRICTED RIGHTS LEGEND
  
 Use, reproduction and disclosure by the US Government is
 subject to restrictions as set forth in subparagraphs (a)
 and (c) of the Commercial Computer Software - Restricted
 Rights clause in FAR 52.227-19.
  
 Gaussian, Inc.
 340 Quinnipiac St., Bldg. 40, Wallingford CT 06492
  
  
 ---------------------------------------------------------------
 Warning -- This program may not be used in any manner that
 competes with the business of Gaussian, Inc. or will provide
 assistance to any competitor of Gaussian, Inc.  The licensee
 of this program is prohibited from giving any competitor of
 Gaussian, Inc. access to this program.  By using this program,
 the user acknowledges that Gaussian, Inc. is engaged in the
 business of creating and licensing software in the field of
 computational chemistry and represents and warrants to the
 licensee that it is not a competitor of Gaussian, Inc. and that
 it will not use this program in any manner prohibited above.
 ---------------------------------------------------------------
  

 Cite this work as:
 Gaussian 16, Revision B.01,
 M. J. Frisch, G. W. Trucks, H. B. Schlegel, G. E. Scuseria, 
 M. A. Robb, J. R. Cheeseman, G. Scalmani, V. Barone, 
 G. A. Petersson, H. Nakatsuji, X. Li, M. Caricato, A. V. Marenich, 
 J. Bloino, B. G. Janesko, R. Gomperts, B. Mennucci, H. P. Hratchian, 
 J. V. Ortiz, A. F. Izmaylov, J. L. Sonnenberg, D. Williams-Young, 
 F. Ding, F. Lipparini, F. Egidi, J. Goings, B. Peng, A. Petrone, 
 T. Henderson, D. Ranasinghe, V. G. Zakrzewski, J. Gao, N. Rega, 
 G. Zheng, W. Liang, M. Hada, M. Ehara, K. Toyota, R. Fukuda, 
 J. Hasegawa, M. Ishida, T. Nakajima, Y. Honda, O. Kitao, H. Nakai, 
 T. Vreven, K. Throssell, J. A. Montgomery, Jr., J. E. Peralta, 
 F. Ogliaro, M. J. Bearpark, J. J. Heyd, E. N. Brothers, K. N. Kudin, 
 V. N. Staroverov, T. A. Keith, R. Kobayashi, J. Normand, 
 K. Raghavachari, A. P. Rendell, J. C. Burant, S. S. Iyengar, 
 J. Tomasi, M. Cossi, J. M. Millam, M. Klene, C. Adamo, R. Cammi, 
 J. W. Ochterski, R. L. Martin, K. Morokuma, O. Farkas, 
 J. B. Foresman, and D. J. Fox, Gaussian, Inc., Wallingford CT, 2016.
 
 ******************************************
 Gaussian 16:  ES64L-G16RevB.01 20-Dec-2017
                10-Aug-2019 
 ******************************************
 %chk=check.chk
 %mem=14000mb
 %NProcShared=8
 Will use up to    8 processors via shared memory.
 ----------------------------------------------------------------------
 #P opt=(modredundant, calcfc, noeigentest, maxStep=5) scf=(tight, dire
 ct) integral=(grid=ultrafine, Acc2E=12) guess=mix uwb97xd/def2tzvp scf
 =xqc iop(2/9=2000)
 ----------------------------------------------------------------------
 1/8=5,10=4,11=1,18=120,19=15,26=4,38=1/1,3;
 2/9=2000,12=2,17=6,18=5,40=1/2;
 3/5=44,7=101,11=2,25=1,27=12,30=1,71=2,74=-58,75=-5,116=2,140=1/1,2,3;
 4/13=-1/1;
 5/5=2,8=3,13=1,32=2,38=5,87=12/2,8;
 8/6=4,10=90,11=11,87=12/1;
 11/6=1,8=1,9=11,15=111,16=1,87=12/1,2,10;
 10/6=1,13=1,87=12/2;
 6/7=2,8=2,9=2,10=2,28=1,87=12/1;
 7/10=1,18=20,25=1,87=12/1,2,3,16;
 1/8=5,10=4,11=1,18=20,19=15,26=4/3(2);
 2/9=2000/2;
 99//99;
 2/9=2000/2;
 3/5=44,7=101,11=2,25=1,27=12,30=1,71=1,74=-58,75=-5,116=2/1,2,3;
 4/5=5,16=3,69=1/1;
 5/5=2,8=3,13=1,32=2,38=5,87=12/2,8;
 7/87=12/1,2,3,16;
 1/8=5,11=1,18=20,19=15,26=4/3(-5);
 2/9=2000/2;
 6/7=2,8=2,9=2,10=2,19=2,28=1,87=12/1;
 99/9=1/99;
 Leave Link    1 at Sat Aug 10 23:38:19 2019, MaxMem=  1835008000 cpu:               0.9 elap:               0.1
 (Enter /opt/g16/l101.exe)
 ----
 name
 ----
 Symbolic Z-matrix:
 Charge =  0 Multiplicity = 2
 N                    -0.42467   0.01074   0.16767 
 N                     0.75507  -0.58161  -0.06802 
 H                    -0.56364   0.98903  -0.04229 
 H                    -1.22069  -0.57931  -0.00746 
 H                     1.45393   0.16115  -0.0499 
 
 The following ModRedundant input section has been read:
 D       3       1       2       5 S  36 10.000                                
 
 Add atom      1 valence  3 ND=      2 dihedral       2      1      3      4
 ITRead=  0  0  0  0  0
 MicOpt= -1 -1 -1 -1 -1
 NAtoms=      5 NQM=        5 NQMF=       0 NMMI=      0 NMMIF=      0
                NMic=       0 NMicF=      0.
                    Isotopes and Nuclear Properties:
 (Nuclear quadrupole moments (NQMom) in fm**2, nuclear magnetic moments (NMagM)
  in nuclear magnetons)

  Atom         1           2           3           4           5
 IAtWgt=          14          14           1           1           1
 AtmWgt=  14.0030740  14.0030740   1.0078250   1.0078250   1.0078250
 NucSpn=           2           2           1           1           1
 AtZEff=  -0.0000000  -0.0000000  -0.0000000  -0.0000000  -0.0000000
 NQMom=    2.0440000   2.0440000   0.0000000   0.0000000   0.0000000
 NMagM=    0.4037610   0.4037610   2.7928460   2.7928460   2.7928460
 AtZNuc=   7.0000000   7.0000000   1.0000000   1.0000000   1.0000000
 Leave Link  101 at Sat Aug 10 23:38:20 2019, MaxMem=  1835008000 cpu:               6.9 elap:               0.9
 (Enter /opt/g16/l103.exe)

 GradGradGradGradGradGradGradGradGradGradGradGradGradGradGradGradGradGrad
 Berny optimization.
 Initialization pass.
                           ----------------------------
                           !    Initial Parameters    !
                           ! (Angstroms and Degrees)  !
 --------------------------                            --------------------------
 ! Name  Definition              Value          Derivative Info.                !
 --------------------------------------------------------------------------------
 ! R1    R(1,2)                  1.341          calculate D2E/DX2 analytically  !
 ! R2    R(1,3)                  1.0102         calculate D2E/DX2 analytically  !
 ! R3    R(1,4)                  1.0062         calculate D2E/DX2 analytically  !
 ! R4    R(2,5)                  1.02           calculate D2E/DX2 analytically  !
 ! A1    A(2,1,3)              120.8163         calculate D2E/DX2 analytically  !
 ! A2    A(2,1,4)              113.9762         calculate D2E/DX2 analytically  !
 ! A3    A(3,1,4)              115.0174         calculate D2E/DX2 analytically  !
 ! A4    A(1,2,5)              106.1399         calculate D2E/DX2 analytically  !
 ! D1    D(3,1,2,5)             24.6703         Scan                            !
 ! D2    D(4,1,2,5)            168.2034         calculate D2E/DX2 analytically  !
 ! D3    D(2,1,3,4)            143.1802         calculate D2E/DX2 analytically  !
 --------------------------------------------------------------------------------
 Trust Radius=5.00D-02 FncErr=1.00D-07 GrdErr=1.00D-06 EigMax=2.50D+02 EigMin=1.00D-04
 Number of optimizations in scan=  37
 Number of steps in this run=     21 maximum allowed number of steps=    100.
 GradGradGradGradGradGradGradGradGradGradGradGradGradGradGradGradGradGrad

 Leave Link  103 at Sat Aug 10 23:38:20 2019, MaxMem=  1835008000 cpu:               0.2 elap:               0.0
 (Enter /opt/g16/l202.exe)
                          Input orientation:                          
 ---------------------------------------------------------------------
 Center     Atomic      Atomic             Coordinates (Angstroms)
 Number     Number       Type             X           Y           Z
 ---------------------------------------------------------------------
      1          7           0       -0.424673    0.010740    0.167669
      2          7           0        0.755071   -0.581611   -0.068021
      3          1           0       -0.563641    0.989029   -0.042288
      4          1           0       -1.220688   -0.579309   -0.007457
      5          1           0        1.453931    0.161150   -0.049902
 ---------------------------------------------------------------------
                    Distance matrix (angstroms):
                    1          2          3          4          5
     1  N    0.000000
     2  N    1.340979   0.000000
     3  H    1.010170   2.050993   0.000000
     4  H    1.006214   1.976688   1.700767   0.000000
     5  H    1.897133   1.020013   2.180834   2.775548   0.000000
 Stoichiometry    H3N2(2)
 Framework group  C1[X(H3N2)]
 Deg. of freedom     9
 Full point group                 C1      NOp   1
 Largest Abelian subgroup         C1      NOp   1
 Largest concise Abelian subgroup C1      NOp   1
                         Standard orientation:                         
 ---------------------------------------------------------------------
 Center     Atomic      Atomic             Coordinates (Angstroms)
 Number     Number       Type             X           Y           Z
 ---------------------------------------------------------------------
      1          7           0        0.591727    0.024667   -0.069531
      2          7           0       -0.734471   -0.150989    0.023050
      3          1           0        1.017766    0.900312    0.199130
      4          1           0        1.129430   -0.796162    0.153139
      5          1           0       -1.147989    0.780104   -0.026903
 ---------------------------------------------------------------------
 Rotational constants (GHZ):         206.6524372          31.0607393          27.3681286
 Leave Link  202 at Sat Aug 10 23:38:20 2019, MaxMem=  1835008000 cpu:               0.0 elap:               0.0
 (Enter /opt/g16/l301.exe)
 Standard basis: def2TZVP (5D, 7F)
 Ernie: Thresh=  0.10000D-02 Tol=  0.10000D-05 Strict=F.
 There are    90 symmetry adapted cartesian basis functions of A   symmetry.
 There are    80 symmetry adapted basis functions of A   symmetry.
    80 basis functions,   126 primitive gaussians,    90 cartesian basis functions
     9 alpha electrons        8 beta electrons
       nuclear repulsion energy        36.6932781326 Hartrees.
 IExCor= 4639 DFT=T Ex+Corr=wB97XD ExCW=0 ScaHFX=  1.000000
 ScaDFX=  1.000000  1.000000  1.000000  1.000000 ScalE2=  1.000000  1.000000
 IRadAn=      5 IRanWt=     -1 IRanGd=            0 ICorTp=0 IEmpDi=121
 HFx  wShort=  0.000000 wLong=  0.200000 cFull=  0.222036 cShort=  0.000000 cLong=  0.777964
 DFx  wShort=  0.000000 wLong=  0.200000 cFull=  0.000000 cShort=  0.000000 cLong=  1.000000
 NAtoms=    5 NActive=    5 NUniq=    5 SFac= 1.00D+00 NAtFMM=   60 NAOKFM=F Big=F
 Integral buffers will be    131072 words long.
 Raffenetti 2 integral format.
 Two-electron integral symmetry is turned on.
 R6Disp:  Grimme-D2 Dispersion energy=       -0.0004459482 Hartrees.
 Nuclear repulsion after empirical dispersion term =       36.6928321844 Hartrees.
 Leave Link  301 at Sat Aug 10 23:38:20 2019, MaxMem=  1835008000 cpu:               0.7 elap:               0.1
 (Enter /opt/g16/l302.exe)
 NPDir=0 NMtPBC=     1 NCelOv=     1 NCel=       1 NClECP=     1 NCelD=      1
         NCelK=      1 NCelE2=     1 NClLst=     1 CellRange=     0.0.
 One-electron integrals computed using PRISM.
 One-electron integral symmetry used in STVInt
   1 Symmetry operations used in ECPInt.
 ECPInt:  NShTT=     595 NPrTT=    1764 LenC2=     595 LenP2D=    1624.
 LDataN:  DoStor=T MaxTD1= 6 Len=  172
 NBasis=    80 RedAO= T EigKep=  1.33D-03  NBF=    80
 NBsUse=    80 1.00D-06 EigRej= -1.00D+00 NBFU=    80
 Precomputing XC quadrature grid using
 IXCGrd= 4 IRadAn=           5 IRanWt=          -1 IRanGd=           0 AccXCQ= 1.00D-12.
 Generated NRdTot=       0 NPtTot=           0 NUsed=           0 NTot=          32
 NSgBfM=    90    90    90    90    90 MxSgAt=     5 MxSgA2=     5.
 Leave Link  302 at Sat Aug 10 23:38:20 2019, MaxMem=  1835008000 cpu:               2.6 elap:               0.3
 (Enter /opt/g16/l303.exe)
 DipDrv:  MaxL=1.
 Leave Link  303 at Sat Aug 10 23:38:20 2019, MaxMem=  1835008000 cpu:               0.4 elap:               0.1
 (Enter /opt/g16/l401.exe)
 ExpMin= 1.03D-01 ExpMax= 1.97D+04 ExpMxC= 6.73D+02 IAcc=3 IRadAn=         5 AccDes= 0.00D+00
 Harris functional with IExCor= 4639 and IRadAn=       5 diagonalized for initial guess.
 HarFok:  IExCor= 4639 AccDes= 0.00D+00 IRadAn=         5 IDoV= 1 UseB2=F ITyADJ=14
 ICtDFT=  3500011 ScaDFX=  1.000000  1.000000  1.000000  1.000000
 FoFCou: FMM=F IPFlag=           0 FMFlag=      100000 FMFlg1=           0
         NFxFlg=           0 DoJE=T BraDBF=F KetDBF=T FulRan=T
         wScrn=  0.000000 ICntrl=       500 IOpCl=  0 I1Cent=   200000004 NGrid=           0
         NMat0=    1 NMatS0=      1 NMatT0=    0 NMatD0=    1 NMtDS0=    0 NMtDT0=    0
 Petite list used in FoFCou.
 Harris En= -106.666804502799    
 JPrj=0 DoOrth=F DoCkMO=T.
 Mixing orbitals, IMix= 1 IMixAn=  0 NRI=1 NE=    9 Coef=  7.07106781D-01  7.07106781D-01
 Mixing orbitals, IMix= 1 IMixAn=  0 NRI=1 NE=    8 Coef= -7.07106781D-01  7.07106781D-01
 Initial guess <Sx>= 0.0000 <Sy>= 0.0000 <Sz>= 0.5000 <S**2>= 1.0000 S= 0.6180
 Leave Link  401 at Sat Aug 10 23:38:21 2019, MaxMem=  1835008000 cpu:               6.3 elap:               0.8
 (Enter /opt/g16/l502.exe)
 Keep R1 and R2 ints in memory in canonical form, NReq=28315865.
 FoFCou: FMM=F IPFlag=           0 FMFlag=           0 FMFlg1=           0
         NFxFlg=           0 DoJE=F BraDBF=F KetDBF=F FulRan=T
         wScrn=  0.000000 ICntrl=       600 IOpCl=  0 I1Cent=           0 NGrid=           0
         NMat0=    1 NMatS0=   3240 NMatT0=    0 NMatD0=    1 NMtDS0=    0 NMtDT0=    0
 Symmetry not used in FoFCou.
 Two-electron integral symmetry not used.
 UHF open shell SCF:
 Using DIIS extrapolation, IDIIS=  1040.
 NGot=  1835008000 LenX=  1813988435 LenY=  1813979894
 Requested convergence on RMS density matrix=1.00D-08 within  32 cycles.
 Requested convergence on MAX density matrix=1.00D-06.
 Requested convergence on             energy=1.00D-06.
 No special actions if energy rises.
 Integral accuracy reduced to 1.0D-05 until final iterations.

 Cycle   1  Pass 0  IDiag  1:
 E= -111.018886521793    
 DIIS: error= 5.43D-02 at cycle   1 NSaved=   1.
 NSaved= 1 IEnMin= 1 EnMin= -111.018886521793     IErMin= 1 ErrMin= 5.43D-02
 ErrMax= 5.43D-02  0.00D+00 EMaxC= 1.00D-01 BMatC= 1.20D+00 BMatP= 1.20D+00
 IDIUse=3 WtCom= 4.57D-01 WtEn= 5.43D-01
 Coeff-Com:  0.100D+01
 Coeff-En:   0.100D+01
 Coeff:      0.100D+01
 Gap=     0.173 Goal=   None    Shift=    0.000
 Gap=     0.233 Goal=   None    Shift=    0.000
 GapD=    0.173 DampG=1.000 DampE=0.500 DampFc=0.5000 IDamp=-1.
 Damping current iteration by 5.00D-01
 RMSDP=2.62D-02 MaxDP=1.09D+00              OVMax= 4.55D-01

 Cycle   2  Pass 0  IDiag  1:
 E= -111.087499454169     Delta-E=       -0.068612932376 Rises=F Damp=T
 DIIS: error= 2.45D-02 at cycle   2 NSaved=   2.
 NSaved= 2 IEnMin= 2 EnMin= -111.087499454169     IErMin= 2 ErrMin= 2.45D-02
 ErrMax= 2.45D-02  0.00D+00 EMaxC= 1.00D-01 BMatC= 2.22D-01 BMatP= 1.20D+00
 IDIUse=3 WtCom= 7.55D-01 WtEn= 2.45D-01
 Coeff-Com: -0.384D+00 0.138D+01
 Coeff-En:   0.000D+00 0.100D+01
 Coeff:     -0.290D+00 0.129D+01
 Gap=     0.274 Goal=   None    Shift=    0.000
 Gap=     0.322 Goal=   None    Shift=    0.000
 RMSDP=1.39D-02 MaxDP=5.69D-01 DE=-6.86D-02 OVMax= 1.31D-01

 Cycle   3  Pass 0  IDiag  1:
 E= -111.197219785768     Delta-E=       -0.109720331598 Rises=F Damp=F
 DIIS: error= 1.09D-02 at cycle   3 NSaved=   3.
 NSaved= 3 IEnMin= 3 EnMin= -111.197219785768     IErMin= 3 ErrMin= 1.09D-02
 ErrMax= 1.09D-02  0.00D+00 EMaxC= 1.00D-01 BMatC= 3.86D-02 BMatP= 2.22D-01
 IDIUse=3 WtCom= 8.91D-01 WtEn= 1.09D-01
 Coeff-Com: -0.193D+00 0.438D+00 0.755D+00
 Coeff-En:   0.000D+00 0.000D+00 0.100D+01
 Coeff:     -0.172D+00 0.390D+00 0.782D+00
 Gap=     0.329 Goal=   None    Shift=    0.000
 Gap=     0.351 Goal=   None    Shift=    0.000
 RMSDP=4.26D-03 MaxDP=1.31D-01 DE=-1.10D-01 OVMax= 1.26D-01

 Cycle   4  Pass 0  IDiag  1:
 E= -111.221418039850     Delta-E=       -0.024198254082 Rises=F Damp=F
 DIIS: error= 7.60D-03 at cycle   4 NSaved=   4.
 NSaved= 4 IEnMin= 4 EnMin= -111.221418039850     IErMin= 4 ErrMin= 7.60D-03
 ErrMax= 7.60D-03  0.00D+00 EMaxC= 1.00D-01 BMatC= 1.16D-02 BMatP= 3.86D-02
 IDIUse=3 WtCom= 9.24D-01 WtEn= 7.60D-02
 Coeff-Com: -0.132D-01 0.140D-01 0.269D+00 0.731D+00
 Coeff-En:   0.000D+00 0.000D+00 0.000D+00 0.100D+01
 Coeff:     -0.122D-01 0.129D-01 0.248D+00 0.751D+00
 Gap=     0.353 Goal=   None    Shift=    0.000
 Gap=     0.372 Goal=   None    Shift=    0.000
 RMSDP=1.82D-03 MaxDP=3.94D-02 DE=-2.42D-02 OVMax= 6.96D-02

 Cycle   5  Pass 0  IDiag  1:
 E= -111.230789790962     Delta-E=       -0.009371751113 Rises=F Damp=F
 DIIS: error= 5.69D-03 at cycle   5 NSaved=   5.
 NSaved= 5 IEnMin= 5 EnMin= -111.230789790962     IErMin= 5 ErrMin= 5.69D-03
 ErrMax= 5.69D-03  0.00D+00 EMaxC= 1.00D-01 BMatC= 4.26D-03 BMatP= 1.16D-02
 IDIUse=3 WtCom= 9.43D-01 WtEn= 5.69D-02
 Coeff-Com:  0.144D+00-0.298D+00-0.496D+00 0.192D+00 0.146D+01
 Coeff-En:   0.000D+00 0.000D+00 0.000D+00 0.000D+00 0.100D+01
 Coeff:      0.136D+00-0.281D+00-0.468D+00 0.181D+00 0.143D+01
 Gap=     0.380 Goal=   None    Shift=    0.000
 Gap=     0.406 Goal=   None    Shift=    0.000
 RMSDP=2.63D-03 MaxDP=5.11D-02 DE=-9.37D-03 OVMax= 1.29D-01

 Cycle   6  Pass 0  IDiag  1:
 E= -111.238453796410     Delta-E=       -0.007664005448 Rises=F Damp=F
 DIIS: error= 1.52D-03 at cycle   6 NSaved=   6.
 NSaved= 6 IEnMin= 6 EnMin= -111.238453796410     IErMin= 6 ErrMin= 1.52D-03
 ErrMax= 1.52D-03  0.00D+00 EMaxC= 1.00D-01 BMatC= 5.62D-04 BMatP= 4.26D-03
 IDIUse=3 WtCom= 9.85D-01 WtEn= 1.52D-02
 Coeff-Com: -0.424D-01 0.934D-01 0.604D-01-0.962D-01-0.179D+00 0.116D+01
 Coeff-En:   0.000D+00 0.000D+00 0.000D+00 0.000D+00 0.000D+00 0.100D+01
 Coeff:     -0.418D-01 0.920D-01 0.595D-01-0.948D-01-0.176D+00 0.116D+01
 Gap=     0.369 Goal=   None    Shift=    0.000
 Gap=     0.397 Goal=   None    Shift=    0.000
 RMSDP=2.80D-04 MaxDP=4.33D-03 DE=-7.66D-03 OVMax= 2.53D-02

 Cycle   7  Pass 0  IDiag  1:
 E= -111.238966647217     Delta-E=       -0.000512850807 Rises=F Damp=F
 DIIS: error= 1.15D-03 at cycle   7 NSaved=   7.
 NSaved= 7 IEnMin= 7 EnMin= -111.238966647217     IErMin= 7 ErrMin= 1.15D-03
 ErrMax= 1.15D-03  0.00D+00 EMaxC= 1.00D-01 BMatC= 1.28D-04 BMatP= 5.62D-04
 IDIUse=3 WtCom= 9.89D-01 WtEn= 1.15D-02
 Coeff-Com: -0.121D-01 0.250D-01 0.676D-01-0.583D-01-0.235D+00-0.614D-02
 Coeff-Com:  0.122D+01
 Coeff-En:   0.000D+00 0.000D+00 0.000D+00 0.000D+00 0.000D+00 0.000D+00
 Coeff-En:   0.100D+01
 Coeff:     -0.119D-01 0.247D-01 0.668D-01-0.577D-01-0.232D+00-0.606D-02
 Coeff:      0.122D+01
 Gap=     0.370 Goal=   None    Shift=    0.000
 Gap=     0.400 Goal=   None    Shift=    0.000
 RMSDP=2.82D-04 MaxDP=4.49D-03 DE=-5.13D-04 OVMax= 2.79D-02

 Cycle   8  Pass 0  IDiag  1:
 E= -111.239190162586     Delta-E=       -0.000223515369 Rises=F Damp=F
 DIIS: error= 2.72D-04 at cycle   8 NSaved=   8.
 NSaved= 8 IEnMin= 8 EnMin= -111.239190162586     IErMin= 8 ErrMin= 2.72D-04
 ErrMax= 2.72D-04  0.00D+00 EMaxC= 1.00D-01 BMatC= 1.08D-05 BMatP= 1.28D-04
 IDIUse=3 WtCom= 9.97D-01 WtEn= 2.72D-03
 Coeff-Com:  0.328D-02-0.698D-02-0.121D-02 0.914D-02 0.925D-02-0.911D-01
 Coeff-Com: -0.984D-01 0.118D+01
 Coeff-En:   0.000D+00 0.000D+00 0.000D+00 0.000D+00 0.000D+00 0.000D+00
 Coeff-En:   0.000D+00 0.100D+01
 Coeff:      0.327D-02-0.696D-02-0.121D-02 0.911D-02 0.922D-02-0.909D-01
 Coeff:     -0.981D-01 0.118D+01
 Gap=     0.371 Goal=   None    Shift=    0.000
 Gap=     0.401 Goal=   None    Shift=    0.000
 RMSDP=7.66D-05 MaxDP=1.11D-03 DE=-2.24D-04 OVMax= 7.11D-03

 Cycle   9  Pass 0  IDiag  1:
 E= -111.239209028301     Delta-E=       -0.000018865716 Rises=F Damp=F
 DIIS: error= 9.58D-05 at cycle   9 NSaved=   9.
 NSaved= 9 IEnMin= 9 EnMin= -111.239209028301     IErMin= 9 ErrMin= 9.58D-05
 ErrMax= 9.58D-05  0.00D+00 EMaxC= 1.00D-01 BMatC= 1.77D-06 BMatP= 1.08D-05
 IDIUse=1 WtCom= 1.00D+00 WtEn= 0.00D+00
 Coeff-Com:  0.916D-03-0.171D-02-0.815D-02 0.356D-02 0.350D-01 0.352D-02
 Coeff-Com: -0.141D+00-0.221D+00 0.133D+01
 Coeff:      0.916D-03-0.171D-02-0.815D-02 0.356D-02 0.350D-01 0.352D-02
 Coeff:     -0.141D+00-0.221D+00 0.133D+01
 Gap=     0.371 Goal=   None    Shift=    0.000
 Gap=     0.401 Goal=   None    Shift=    0.000
 RMSDP=4.71D-05 MaxDP=7.77D-04 DE=-1.89D-05 OVMax= 2.42D-03

 Failed to achieve initial convergence to 1.0D-08 in 10 cycles.
 Switch to full accuracy anyway.
 Cycle  10  Pass 1  IDiag  1:
 E= -111.239208059636     Delta-E=        0.000000968666 Rises=F Damp=F
 DIIS: error= 2.76D-05 at cycle   1 NSaved=   1.
 NSaved= 1 IEnMin= 1 EnMin= -111.239208059636     IErMin= 1 ErrMin= 2.76D-05
 ErrMax= 2.76D-05  0.00D+00 EMaxC= 1.00D-01 BMatC= 2.37D-07 BMatP= 2.37D-07
 IDIUse=1 WtCom= 1.00D+00 WtEn= 0.00D+00
 Coeff-Com:  0.100D+01
 Coeff:      0.100D+01
 Gap=     0.371 Goal=   None    Shift=    0.000
 Gap=     0.401 Goal=   None    Shift=    0.000
 RMSDP=4.71D-05 MaxDP=7.77D-04 DE= 9.69D-07 OVMax= 3.75D-04

 Cycle  11  Pass 1  IDiag  1:
 E= -111.239208267573     Delta-E=       -0.000000207937 Rises=F Damp=F
 DIIS: error= 1.89D-05 at cycle   2 NSaved=   2.
 NSaved= 2 IEnMin= 2 EnMin= -111.239208267573     IErMin= 2 ErrMin= 1.89D-05
 ErrMax= 1.89D-05  0.00D+00 EMaxC= 1.00D-01 BMatC= 8.09D-08 BMatP= 2.37D-07
 IDIUse=1 WtCom= 1.00D+00 WtEn= 0.00D+00
 Coeff-Com:  0.141D+00 0.859D+00
 Coeff:      0.141D+00 0.859D+00
 Gap=     0.371 Goal=   None    Shift=    0.000
 Gap=     0.401 Goal=   None    Shift=    0.000
 RMSDP=3.79D-06 MaxDP=6.35D-05 DE=-2.08D-07 OVMax= 1.83D-04

 Cycle  12  Pass 1  IDiag  1:
 E= -111.239208331870     Delta-E=       -0.000000064297 Rises=F Damp=F
 DIIS: error= 1.19D-05 at cycle   3 NSaved=   3.
 NSaved= 3 IEnMin= 3 EnMin= -111.239208331870     IErMin= 3 ErrMin= 1.19D-05
 ErrMax= 1.19D-05  0.00D+00 EMaxC= 1.00D-01 BMatC= 5.83D-08 BMatP= 8.09D-08
 IDIUse=1 WtCom= 1.00D+00 WtEn= 0.00D+00
 Coeff-Com: -0.410D+00 0.461D+00 0.948D+00
 Coeff:     -0.410D+00 0.461D+00 0.948D+00
 Gap=     0.371 Goal=   None    Shift=    0.000
 Gap=     0.401 Goal=   None    Shift=    0.000
 RMSDP=4.49D-06 MaxDP=7.50D-05 DE=-6.43D-08 OVMax= 2.21D-04

 Cycle  13  Pass 1  IDiag  1:
 E= -111.239208378477     Delta-E=       -0.000000046607 Rises=F Damp=F
 DIIS: error= 5.14D-06 at cycle   4 NSaved=   4.
 NSaved= 4 IEnMin= 4 EnMin= -111.239208378477     IErMin= 4 ErrMin= 5.14D-06
 ErrMax= 5.14D-06  0.00D+00 EMaxC= 1.00D-01 BMatC= 4.20D-09 BMatP= 5.83D-08
 IDIUse=1 WtCom= 1.00D+00 WtEn= 0.00D+00
 Coeff-Com: -0.981D-01-0.687D-01 0.775D-01 0.109D+01
 Coeff:     -0.981D-01-0.687D-01 0.775D-01 0.109D+01
 Gap=     0.371 Goal=   None    Shift=    0.000
 Gap=     0.401 Goal=   None    Shift=    0.000
 RMSDP=1.99D-06 MaxDP=3.10D-05 DE=-4.66D-08 OVMax= 1.14D-04

 Cycle  14  Pass 1  IDiag  1:
 E= -111.239208385635     Delta-E=       -0.000000007158 Rises=F Damp=F
 DIIS: error= 2.27D-06 at cycle   5 NSaved=   5.
 NSaved= 5 IEnMin= 5 EnMin= -111.239208385635     IErMin= 5 ErrMin= 2.27D-06
 ErrMax= 2.27D-06  0.00D+00 EMaxC= 1.00D-01 BMatC= 6.30D-10 BMatP= 4.20D-09
 IDIUse=1 WtCom= 1.00D+00 WtEn= 0.00D+00
 Coeff-Com:  0.500D-01-0.495D-01-0.133D+00 0.109D-01 0.112D+01
 Coeff:      0.500D-01-0.495D-01-0.133D+00 0.109D-01 0.112D+01
 Gap=     0.371 Goal=   None    Shift=    0.000
 Gap=     0.401 Goal=   None    Shift=    0.000
 RMSDP=5.15D-07 MaxDP=7.37D-06 DE=-7.16D-09 OVMax= 4.43D-05

 Cycle  15  Pass 1  IDiag  1:
 E= -111.239208386507     Delta-E=       -0.000000000871 Rises=F Damp=F
 DIIS: error= 9.40D-07 at cycle   6 NSaved=   6.
 NSaved= 6 IEnMin= 6 EnMin= -111.239208386507     IErMin= 6 ErrMin= 9.40D-07
 ErrMax= 9.40D-07  0.00D+00 EMaxC= 1.00D-01 BMatC= 1.54D-10 BMatP= 6.30D-10
 IDIUse=1 WtCom= 1.00D+00 WtEn= 0.00D+00
 Coeff-Com:  0.246D-01 0.520D-02-0.343D-01-0.185D+00 0.186D+00 0.100D+01
 Coeff:      0.246D-01 0.520D-02-0.343D-01-0.185D+00 0.186D+00 0.100D+01
 Gap=     0.371 Goal=   None    Shift=    0.000
 Gap=     0.401 Goal=   None    Shift=    0.000
 RMSDP=1.88D-07 MaxDP=3.08D-06 DE=-8.71D-10 OVMax= 1.93D-05

 Cycle  16  Pass 1  IDiag  1:
 E= -111.239208386692     Delta-E=       -0.000000000185 Rises=F Damp=F
 DIIS: error= 4.63D-07 at cycle   7 NSaved=   7.
 NSaved= 7 IEnMin= 7 EnMin= -111.239208386692     IErMin= 7 ErrMin= 4.63D-07
 ErrMax= 4.63D-07  0.00D+00 EMaxC= 1.00D-01 BMatC= 3.82D-11 BMatP= 1.54D-10
 IDIUse=1 WtCom= 1.00D+00 WtEn= 0.00D+00
 Coeff-Com: -0.108D-01 0.186D-01 0.360D-01-0.547D-01-0.317D+00 0.237D+00
 Coeff-Com:  0.109D+01
 Coeff:     -0.108D-01 0.186D-01 0.360D-01-0.547D-01-0.317D+00 0.237D+00
 Coeff:      0.109D+01
 Gap=     0.371 Goal=   None    Shift=    0.000
 Gap=     0.401 Goal=   None    Shift=    0.000
 RMSDP=1.41D-07 MaxDP=2.03D-06 DE=-1.85D-10 OVMax= 1.25D-05

 Cycle  17  Pass 1  IDiag  1:
 E= -111.239208386744     Delta-E=       -0.000000000052 Rises=F Damp=F
 DIIS: error= 1.23D-07 at cycle   8 NSaved=   8.
 NSaved= 8 IEnMin= 8 EnMin= -111.239208386744     IErMin= 8 ErrMin= 1.23D-07
 ErrMax= 1.23D-07  0.00D+00 EMaxC= 1.00D-01 BMatC= 2.10D-12 BMatP= 3.82D-11
 IDIUse=1 WtCom= 1.00D+00 WtEn= 0.00D+00
 Coeff-Com:  0.103D-02-0.590D-02-0.681D-02 0.322D-01 0.757D-01-0.175D+00
 Coeff-Com: -0.330D+00 0.141D+01
 Coeff:      0.103D-02-0.590D-02-0.681D-02 0.322D-01 0.757D-01-0.175D+00
 Coeff:     -0.330D+00 0.141D+01
 Gap=     0.371 Goal=   None    Shift=    0.000
 Gap=     0.401 Goal=   None    Shift=    0.000
 RMSDP=6.23D-08 MaxDP=1.09D-06 DE=-5.21D-11 OVMax= 3.30D-06

 Cycle  18  Pass 1  IDiag  1:
 E= -111.239208386748     Delta-E=       -0.000000000004 Rises=F Damp=F
 DIIS: error= 2.01D-08 at cycle   9 NSaved=   9.
 NSaved= 9 IEnMin= 9 EnMin= -111.239208386748     IErMin= 9 ErrMin= 2.01D-08
 ErrMax= 2.01D-08  0.00D+00 EMaxC= 1.00D-01 BMatC= 1.25D-13 BMatP= 2.10D-12
 IDIUse=1 WtCom= 1.00D+00 WtEn= 0.00D+00
 Coeff-Com:  0.775D-03-0.128D-02-0.162D-02 0.123D-02 0.190D-01-0.443D-02
 Coeff-Com: -0.638D-01-0.114D+00 0.116D+01
 Coeff:      0.775D-03-0.128D-02-0.162D-02 0.123D-02 0.190D-01-0.443D-02
 Coeff:     -0.638D-01-0.114D+00 0.116D+01
 Gap=     0.371 Goal=   None    Shift=    0.000
 Gap=     0.401 Goal=   None    Shift=    0.000
 RMSDP=1.24D-08 MaxDP=2.63D-07 DE=-4.21D-12 OVMax= 5.52D-07

 Cycle  19  Pass 1  IDiag  1:
 E= -111.239208386748     Delta-E=       -0.000000000000 Rises=F Damp=F
 DIIS: error= 8.62D-09 at cycle  10 NSaved=  10.
 NSaved=10 IEnMin=10 EnMin= -111.239208386748     IErMin=10 ErrMin= 8.62D-09
 ErrMax= 8.62D-09  0.00D+00 EMaxC= 1.00D-01 BMatC= 8.86D-15 BMatP= 1.25D-13
 IDIUse=1 WtCom= 1.00D+00 WtEn= 0.00D+00
 Coeff-Com: -0.251D-03 0.519D-03 0.872D-03-0.185D-02-0.798D-02 0.853D-02
 Coeff-Com:  0.304D-01-0.275D-01-0.343D+00 0.134D+01
 Coeff:     -0.251D-03 0.519D-03 0.872D-03-0.185D-02-0.798D-02 0.853D-02
 Coeff:      0.304D-01-0.275D-01-0.343D+00 0.134D+01
 Gap=     0.371 Goal=   None    Shift=    0.000
 Gap=     0.401 Goal=   None    Shift=    0.000
 RMSDP=1.96D-09 MaxDP=3.45D-08 DE=-1.99D-13 OVMax= 1.08D-07

 SCF Done:  E(UwB97XD) =  -111.239208387     A.U. after   19 cycles
            NFock= 19  Conv=0.20D-08     -V/T= 2.0041
 <Sx>= 0.0000 <Sy>= 0.0000 <Sz>= 0.5000 <S**2>= 0.7546 S= 0.5023
 <L.S>= 0.000000000000E+00
 KE= 1.107842895230D+02 PE=-3.337640974075D+02 EE= 7.504776731338D+01
 Annihilation of the first spin contaminant:
 S**2 before annihilation     0.7546,   after     0.7500
 Leave Link  502 at Sat Aug 10 23:38:32 2019, MaxMem=  1835008000 cpu:              82.4 elap:              11.1
 (Enter /opt/g16/l508.exe)
 QCSCF skips out because SCF is already converged.
 Leave Link  508 at Sat Aug 10 23:38:32 2019, MaxMem=  1835008000 cpu:               0.3 elap:               0.0
 (Enter /opt/g16/l801.exe)
 DoSCS=F DFT=T ScalE2(SS,OS)=  1.000000  1.000000
 Range of M.O.s used for correlation:     1    80
 NBasis=    80 NAE=     9 NBE=     8 NFC=     0 NFV=     0
 NROrb=     80 NOA=     9 NOB=     8 NVA=    71 NVB=    72

 **** Warning!!: The largest alpha MO coefficient is  0.10519313D+02


 **** Warning!!: The largest beta MO coefficient is  0.10494957D+02

 Leave Link  801 at Sat Aug 10 23:38:32 2019, MaxMem=  1835008000 cpu:               0.7 elap:               0.1
 (Enter /opt/g16/l1101.exe)
 Using compressed storage, NAtomX=     5.
 Will process      6 centers per pass.
   1 Symmetry operations used in ECPInt.
 ECPInt:  NShTT=     595 NPrTT=    1764 LenC2=     595 LenP2D=    1624.
 LDataN:  DoStor=T MaxTD1= 7 Len=  274
 R6Disp: Adding Grimme-D2 dispersion energy 1st derivatives to the gradient.
 Leave Link 1101 at Sat Aug 10 23:38:34 2019, MaxMem=  1835008000 cpu:              12.5 elap:               1.8
 (Enter /opt/g16/l1102.exe)
 Symmetrizing basis deriv contribution to polar:
 IMax=3 JMax=2 DiffMx= 0.00D+00
 Leave Link 1102 at Sat Aug 10 23:38:34 2019, MaxMem=  1835008000 cpu:               1.2 elap:               0.2
 (Enter /opt/g16/l1110.exe)
 Forming Gx(P) for the SCF density, NAtomX=     5.
 Integral derivatives from FoFJK, PRISM(SPDF).
 Do as many integral derivatives as possible in FoFJK.
 G2DrvN: MDV=    1835007474.
 G2DrvN: will do     6 centers at a time, making    1 passes.
 Calling FoFCou, ICntrl=  3107 FMM=F I1Cent=   0 AccDes= 1.00D-12.
 FoFJK:  IHMeth= 1 ICntrl=    3107 DoSepK=T KAlg= 0 I1Cent=           0 FoldK=F
 IRaf=         1 NMat=       1 IRICut=       1 DoRegI=T DoRafI=F ISym2E= 0 IDoP0=0 IntGTp=1.
 FoFCou: FMM=F IPFlag=           0 FMFlag=      100000 FMFlg1=           0
         NFxFlg=           0 DoJE=F BraDBF=F KetDBF=F FulRan=T
         wScrn=  0.000000 ICntrl=      3507 IOpCl=  0 I1Cent=           0 NGrid=           0
         NMat0=    1 NMatS0=      1 NMatT0=    0 NMatD0=    1 NMtDS0=    0 NMtDT0=    0
 Symmetry not used in FoFCou.
 End of G2Drv F.D. properties file   721 does not exist.
 End of G2Drv F.D. properties file   722 does not exist.
 End of G2Drv F.D. properties file   788 does not exist.
 Leave Link 1110 at Sat Aug 10 23:38:48 2019, MaxMem=  1835008000 cpu:              96.3 elap:              13.8
 (Enter /opt/g16/l1002.exe)
 Minotr:  UHF open shell wavefunction.
          IDoAtm=11111
          Direct CPHF calculation.
          Differentiating once with respect to nuclear coordinates.
          Requested convergence is 1.0D-08 RMS, and 1.0D-07 maximum.
          Secondary convergence is 1.0D-12 RMS, and 1.0D-12 maximum.
          NewPWx=T KeepS1=F KeepF1=F KeepIn=T MapXYZ=F SortEE=F KeepMc=T.
         1491 words used for storage of precomputed grid.
 Keep R1 and R2 ints in memory in canonical form, NReq=28292652.
 FoFCou: FMM=F IPFlag=           0 FMFlag=           0 FMFlg1=           0
         NFxFlg=           0 DoJE=F BraDBF=F KetDBF=F FulRan=T
         wScrn=  0.000000 ICntrl=       600 IOpCl=  0 I1Cent=           0 NGrid=           0
         NMat0=    1 NMatS0=   3240 NMatT0=    0 NMatD0=    1 NMtDS0=    0 NMtDT0=    0
 Symmetry not used in FoFCou.
 Two-electron integral symmetry not used.
          MDV=    1835008000 using IRadAn=       1.
          Solving linear equations simultaneously, MaxMat=       0.
          There are    18 degrees of freedom in the 1st order CPHF.  IDoFFX=6 NUNeed=     0.
     12 vectors produced by pass  0 Test12= 6.75D-15 5.56D-09 XBig12= 1.53D-01 1.32D-01.
 AX will form    12 AO Fock derivatives at one time.
     12 vectors produced by pass  1 Test12= 6.75D-15 5.56D-09 XBig12= 1.69D-02 2.80D-02.
     12 vectors produced by pass  2 Test12= 6.75D-15 5.56D-09 XBig12= 2.12D-03 1.68D-02.
     12 vectors produced by pass  3 Test12= 6.75D-15 5.56D-09 XBig12= 5.67D-05 1.84D-03.
     12 vectors produced by pass  4 Test12= 6.75D-15 5.56D-09 XBig12= 1.06D-06 2.55D-04.
     12 vectors produced by pass  5 Test12= 6.75D-15 5.56D-09 XBig12= 2.23D-08 3.98D-05.
     12 vectors produced by pass  6 Test12= 6.75D-15 5.56D-09 XBig12= 2.87D-10 3.79D-06.
      8 vectors produced by pass  7 Test12= 6.75D-15 5.56D-09 XBig12= 2.68D-12 3.07D-07.
      1 vectors produced by pass  8 Test12= 6.75D-15 5.56D-09 XBig12= 2.08D-14 2.86D-08.
 InvSVY:  IOpt=1 It=  1 EMax= 1.11D-15
 Solved reduced A of dimension    93 with    12 vectors.
 End of Minotr F.D. properties file   721 does not exist.
 End of Minotr F.D. properties file   722 does not exist.
 End of Minotr F.D. properties file   788 does not exist.
 Leave Link 1002 at Sat Aug 10 23:39:06 2019, MaxMem=  1835008000 cpu:             126.2 elap:              17.8
 (Enter /opt/g16/l601.exe)
 Copying SCF densities to generalized density rwf, IOpCl= 1 IROHF=0.

 **********************************************************************

            Population analysis using the SCF Density.

 **********************************************************************

 Orbital symmetries:
 Alpha Orbitals:
       Occupied  (A) (A) (A) (A) (A) (A) (A) (A) (A)
       Virtual   (A) (A) (A) (A) (A) (A) (A) (A) (A) (A) (A) (A)
                 (A) (A) (A) (A) (A) (A) (A) (A) (A) (A) (A) (A)
                 (A) (A) (A) (A) (A) (A) (A) (A) (A) (A) (A) (A)
                 (A) (A) (A) (A) (A) (A) (A) (A) (A) (A) (A) (A)
                 (A) (A) (A) (A) (A) (A) (A) (A) (A) (A) (A) (A)
                 (A) (A) (A) (A) (A) (A) (A) (A) (A) (A) (A)
 Beta  Orbitals:
       Occupied  (A) (A) (A) (A) (A) (A) (A) (A)
       Virtual   (A) (A) (A) (A) (A) (A) (A) (A) (A) (A) (A) (A)
                 (A) (A) (A) (A) (A) (A) (A) (A) (A) (A) (A) (A)
                 (A) (A) (A) (A) (A) (A) (A) (A) (A) (A) (A) (A)
                 (A) (A) (A) (A) (A) (A) (A) (A) (A) (A) (A) (A)
                 (A) (A) (A) (A) (A) (A) (A) (A) (A) (A) (A) (A)
                 (A) (A) (A) (A) (A) (A) (A) (A) (A) (A) (A) (A)
 The electronic state is 2-A.
 Alpha  occ. eigenvalues --  -14.47854 -14.43959  -1.08836  -0.83643  -0.64460
 Alpha  occ. eigenvalues --   -0.56272  -0.48109  -0.38127  -0.26846
 Alpha virt. eigenvalues --    0.10263   0.14175   0.17699   0.31658   0.38108
 Alpha virt. eigenvalues --    0.40686   0.44088   0.44860   0.48627   0.49200
 Alpha virt. eigenvalues --    0.51495   0.54541   0.57933   0.60997   0.65825
 Alpha virt. eigenvalues --    0.92478   1.03034   1.10295   1.22301   1.30226
 Alpha virt. eigenvalues --    1.41875   1.43984   1.47372   1.61924   1.66353
 Alpha virt. eigenvalues --    1.74319   1.91485   1.93235   1.94505   2.05600
 Alpha virt. eigenvalues --    2.06468   2.10348   2.14420   2.17080   2.21797
 Alpha virt. eigenvalues --    2.36963   2.42635   2.57365   2.58640   2.67838
 Alpha virt. eigenvalues --    2.79843   3.09007   3.14847   3.22096   3.56840
 Alpha virt. eigenvalues --    3.68218   3.89112   3.95627   4.03412   4.12610
 Alpha virt. eigenvalues --    4.32929   4.47107   4.60590   4.64319   4.68229
 Alpha virt. eigenvalues --    4.71692   4.72649   4.73941   4.83221   4.90506
 Alpha virt. eigenvalues --    5.01409   5.03681   5.32757   5.35666   5.59007
 Alpha virt. eigenvalues --    5.67617   5.81641   5.94101   6.82771  31.67869
 Alpha virt. eigenvalues --   31.76638
  Beta  occ. eigenvalues --  -14.47282 -14.42600  -1.06581  -0.80530  -0.63684
  Beta  occ. eigenvalues --   -0.54980  -0.41541  -0.35925
  Beta virt. eigenvalues --    0.04180   0.10561   0.14503   0.17992   0.32670
  Beta virt. eigenvalues --    0.38179   0.41943   0.44490   0.45252   0.49540
  Beta virt. eigenvalues --    0.51799   0.52048   0.55393   0.58421   0.61774
  Beta virt. eigenvalues --    0.66565   0.93654   1.05319   1.12362   1.23343
  Beta virt. eigenvalues --    1.31017   1.43226   1.44861   1.48170   1.64216
  Beta virt. eigenvalues --    1.68030   1.74558   1.92329   1.94494   1.95289
  Beta virt. eigenvalues --    2.06382   2.07021   2.13064   2.15979   2.19306
  Beta virt. eigenvalues --    2.22607   2.39230   2.45080   2.58157   2.59278
  Beta virt. eigenvalues --    2.68602   2.80663   3.09861   3.16382   3.23398
  Beta virt. eigenvalues --    3.58737   3.70859   3.92224   3.97507   4.06123
  Beta virt. eigenvalues --    4.14140   4.36955   4.49632   4.63375   4.67094
  Beta virt. eigenvalues --    4.70581   4.74675   4.76167   4.77015   4.87314
  Beta virt. eigenvalues --    4.93542   5.03319   5.05478   5.34402   5.37108
  Beta virt. eigenvalues --    5.60259   5.70664   5.82721   5.94855   6.84368
  Beta virt. eigenvalues --   31.69584  31.77369
          Condensed to atoms (all electrons):
               1          2          3          4          5
     1  N    6.444161   0.173863   0.359787   0.381432  -0.031247
     2  N    0.173863   6.957565  -0.019687  -0.051381   0.296928
     3  H    0.359787  -0.019687   0.489245  -0.042242  -0.021552
     4  H    0.381432  -0.051381  -0.042242   0.448084   0.009828
     5  H   -0.031247   0.296928  -0.021552   0.009828   0.549484
          Atomic-Atomic Spin Densities.
               1          2          3          4          5
     1  N    0.481644  -0.215851  -0.002909  -0.001034   0.003170
     2  N   -0.215851   0.985277  -0.004987  -0.003190  -0.000735
     3  H   -0.002909  -0.004987   0.002454   0.003646   0.001097
     4  H   -0.001034  -0.003190   0.003646  -0.003638  -0.000374
     5  H    0.003170  -0.000735   0.001097  -0.000374  -0.023403
 Mulliken charges and spin densities:
               1          2
     1  N   -0.327995   0.265020
     2  N   -0.357289   0.760515
     3  H    0.234448  -0.000699
     4  H    0.254278  -0.004591
     5  H    0.196558  -0.020245
 Sum of Mulliken charges =  -0.00000   1.00000
 Mulliken charges and spin densities with hydrogens summed into heavy atoms:
               1          2
     1  N    0.160730   0.259730
     2  N   -0.160730   0.740270
 APT charges:
               1
     1  N   -0.725201
     2  N   -0.626769
     3  H    0.449678
     4  H    0.485719
     5  H    0.416574
 Sum of APT charges =  -0.00000
 APT charges with hydrogens summed into heavy atoms:
               1
     1  N    0.210195
     2  N   -0.210195
 Electronic spatial extent (au):  <R**2>=             70.7351
 Charge=             -0.0000 electrons
 Dipole moment (field-independent basis, Debye):
    X=              2.0259    Y=              1.6720    Z=              0.6492  Tot=              2.7058
 Quadrupole moment (field-independent basis, Debye-Ang):
   XX=            -11.6197   YY=            -10.7841   ZZ=            -14.2598
   XY=             -2.2633   XZ=              0.9762   YZ=              0.1114
 Traceless Quadrupole moment (field-independent basis, Debye-Ang):
   XX=              0.6015   YY=              1.4371   ZZ=             -2.0386
   XY=             -2.2633   XZ=              0.9762   YZ=              0.1114
 Octapole moment (field-independent basis, Debye-Ang**2):
  XXX=              4.3390  YYY=              2.3811  ZZZ=              0.5690  XYY=              2.8413
  XXY=              2.4240  XXZ=              0.9027  XZZ=              0.4021  YZZ=              0.4537
  YYZ=              0.5473  XYZ=              0.0970
 Hexadecapole moment (field-independent basis, Debye-Ang**3):
 XXXX=            -51.8081 YYYY=            -17.1162 ZZZZ=            -14.4673 XXXY=             -4.5883
 XXXZ=              1.5660 YYYX=             -2.6425 YYYZ=              0.1687 ZZZX=              0.8493
 ZZZY=              0.1033 XXYY=             -9.7229 XXZZ=            -12.5857 YYZZ=             -5.6655
 XXYZ=              0.0378 YYXZ=              0.7551 ZZXY=             -0.6527
 N-N= 3.669283218437D+01 E-N=-3.337640973831D+02  KE= 1.107842895230D+02
  Exact polarizability:   0.000   0.000   0.000   0.000   0.000   0.000
 Approx polarizability:  23.203  -0.154  17.290  -0.258  -0.076  12.595
                          Isotropic Fermi Contact Couplings
        Atom                 a.u.       MegaHertz       Gauss      10(-4) cm-1
     1  N(14)              0.07400      23.91124       8.53213       7.97593
     2  N(14)              0.08356      26.99981       9.63420       9.00617
     3  H(1)               0.00080       3.57868       1.27696       1.19372
     4  H(1)              -0.00221      -9.87585      -3.52395      -3.29423
     5  H(1)              -0.01055     -47.14868     -16.82382     -15.72711
 --------------------------------------------------------
       Center         ----  Spin Dipole Couplings  ----
                      3XX-RR        3YY-RR        3ZZ-RR
 --------------------------------------------------------
     1   Atom       -0.360065     -0.395260      0.755325
     2   Atom       -0.932904     -0.908817      1.841721
     3   Atom       -0.014634      0.024972     -0.010339
     4   Atom       -0.002438      0.013819     -0.011381
     5   Atom       -0.050395      0.065107     -0.014712
 --------------------------------------------------------
                        XY            XZ            YZ
 --------------------------------------------------------
     1   Atom        0.008882     -0.141560     -0.041006
     2   Atom       -0.019091      0.009004      0.105647
     3   Atom        0.036650      0.005011      0.008664
     4   Atom       -0.039678      0.005133     -0.008750
     5   Atom       -0.068419      0.002291     -0.000658
 --------------------------------------------------------


 ---------------------------------------------------------------------------------
              Anisotropic Spin Dipole Couplings in Principal Axis System
 ---------------------------------------------------------------------------------

       Atom             a.u.   MegaHertz   Gauss  10(-4) cm-1        Axes

              Baa    -0.3975   -15.329    -5.470    -5.113 -0.1888  0.9820  0.0117
     1 N(14)  Bbb    -0.3770   -14.542    -5.189    -4.851  0.9742  0.1857  0.1285
              Bcc     0.7745    29.871    10.659     9.964 -0.1240 -0.0357  0.9916
 
              Baa    -0.9448   -36.437   -13.002   -12.154  0.8541  0.5197 -0.0225
     2 N(14)  Bbb    -0.9010   -34.751   -12.400   -11.592 -0.5202  0.8535 -0.0312
              Bcc     1.8458    71.188    25.402    23.746  0.0030  0.0383  0.9993
 
              Baa    -0.0365   -19.469    -6.947    -6.494  0.8585 -0.5127  0.0053
     3 H(1)   Bbb    -0.0120    -6.424    -2.292    -2.143 -0.0905 -0.1412  0.9858
              Bcc     0.0485    25.893     9.239     8.637  0.5047  0.8469  0.1676
 
              Baa    -0.0349   -18.632    -6.648    -6.215  0.7675  0.6373  0.0695
     4 H(1)   Bbb    -0.0130    -6.920    -2.469    -2.308 -0.1596  0.0849  0.9835
              Bcc     0.0479    25.551     9.117     8.523 -0.6209  0.7659 -0.1669
 
              Baa    -0.0822   -43.872   -15.655   -14.634  0.9067  0.4209 -0.0267
     5 H(1)   Bbb    -0.0147    -7.836    -2.796    -2.614  0.0183  0.0239  0.9995
              Bcc     0.0969    51.707    18.450    17.248 -0.4214  0.9068 -0.0140
 

 ---------------------------------------------------------------------------------

 No NMR shielding tensors so no spin-rotation constants.
 Leave Link  601 at Sat Aug 10 23:39:07 2019, MaxMem=  1835008000 cpu:               4.5 elap:               0.6
 (Enter /opt/g16/l701.exe)
 ... and contract with generalized density number  0.
 Compute integral second derivatives.
 R6Disp: Adding Grimme-D2 dispersion energy 2nd derivatives to the Hessian.
   1 Symmetry operations used in ECPInt.
 ECPInt:  NShTT=     595 NPrTT=    1764 LenC2=     595 LenP2D=    1624.
 LDataN:  DoStor=T MaxTD1= 8 Len=  415
 Leave Link  701 at Sat Aug 10 23:39:08 2019, MaxMem=  1835008000 cpu:               8.2 elap:               1.0
 (Enter /opt/g16/l702.exe)
 L702 exits ... SP integral derivatives will be done elsewhere.
 Leave Link  702 at Sat Aug 10 23:39:08 2019, MaxMem=  1835008000 cpu:               0.5 elap:               0.1
 (Enter /opt/g16/l703.exe)
 Integral derivatives from FoFJK, PRISM(SPDF).
 Compute integral second derivatives, UseDBF=F ICtDFT=           0.
 Calling FoFJK, ICntrl=    100147 FMM=F ISym2X=0 I1Cent= 0 IOpClX= 1 NMat=1 NMatS=1 NMatT=0.
 FoFJK:  IHMeth= 1 ICntrl=  100147 DoSepK=T KAlg= 0 I1Cent=           0 FoldK=F
 IRaf=         1 NMat=       1 IRICut=       1 DoRegI=T DoRafI=F ISym2E= 0 IDoP0=0 IntGTp=1.
 FoFCou: FMM=F IPFlag=           0 FMFlag=      100000 FMFlg1=         800
         NFxFlg=           0 DoJE=F BraDBF=F KetDBF=F FulRan=T
         wScrn=  0.000000 ICntrl=    100547 IOpCl=  0 I1Cent=           0 NGrid=           0
         NMat0=    1 NMatS0=      1 NMatT0=    0 NMatD0=    1 NMtDS0=    0 NMtDT0=    0
 Symmetry not used in FoFCou.
 Leave Link  703 at Sat Aug 10 23:39:35 2019, MaxMem=  1835008000 cpu:             205.4 elap:              27.2
 (Enter /opt/g16/l716.exe)
 Dipole        = 7.97050809D-01 6.57798154D-01 2.55424926D-01
 Polarizability= 0.00000000D+00 0.00000000D+00 0.00000000D+00
                 0.00000000D+00 0.00000000D+00 0.00000000D+00
 ***** Axes restored to original set *****
 -------------------------------------------------------------------
 Center     Atomic                   Forces (Hartrees/Bohr)
 Number     Number              X              Y              Z
 -------------------------------------------------------------------
      1        7          -0.000018371    0.000011702   -0.000003903
      2        7           0.000008024   -0.000006125   -0.000000410
      3        1           0.000005412   -0.000006062    0.000002416
      4        1           0.000007166   -0.000002354    0.000003999
      5        1          -0.000002231    0.000002840   -0.000002103
 -------------------------------------------------------------------
 Cartesian Forces:  Max     0.000018371 RMS     0.000007090
 Force constants in Cartesian coordinates: 
                1             2             3             4             5 
      1  0.744876D+00
      2  0.512749D-01  0.786913D+00
      3  0.124378D-01 -0.144919D-01  0.634888D-01
      4 -0.341291D+00  0.134332D+00  0.508258D-01  0.586652D+00
      5  0.729153D-01 -0.161904D+00 -0.184489D-01  0.579328D-01  0.413695D+00
      6  0.630481D-01 -0.403602D-01 -0.141844D-01 -0.571418D-01  0.387671D-01
      7 -0.737559D-01  0.306968D-01 -0.972177D-02 -0.105722D-01  0.379484D-01
      8  0.248400D-01 -0.413926D+00  0.739536D-01  0.122459D-01 -0.105077D-01
      9 -0.778129D-02  0.104242D+00 -0.251969D-01  0.206113D-02 -0.129156D-01
     10 -0.289377D+00 -0.180330D+00 -0.524686D-01 -0.339178D-01 -0.178783D-01
     11 -0.183966D+00 -0.217387D+00 -0.374693D-01  0.188747D-01  0.170407D-01
     12 -0.774618D-01 -0.583786D-01 -0.216712D-01  0.996536D-02  0.719254D-02
     13 -0.404516D-01 -0.359736D-01 -0.107326D-02 -0.200871D+00 -0.150918D+00
     14  0.349355D-01  0.630418D-02 -0.354352D-02 -0.223385D+00 -0.258324D+00
     15  0.975723D-02  0.898870D-02 -0.243623D-02 -0.571050D-02 -0.145951D-01
                6             7             8             9            10 
      6  0.289751D-01
      7 -0.469492D-02  0.747219D-01
      8  0.279744D-02 -0.433002D-01  0.433295D+00
      9  0.563088D-02  0.699142D-02 -0.824521D-01  0.250707D-01
     10 -0.326922D-02  0.784814D-02  0.663802D-02  0.104540D-03  0.321101D+00
     11  0.433813D-02 -0.268749D-01 -0.133433D-01 -0.963748D-02  0.187107D+00
     12 -0.731677D-02  0.837679D-02  0.760491D-02 -0.206040D-02  0.558334D-01
     13  0.205786D-02  0.175808D-02 -0.423682D-03 -0.137580D-02 -0.565467D-02
     14 -0.554244D-02  0.153000D-02  0.448229D-02  0.763134D-03  0.446288D-02
     15 -0.131048D-01 -0.951517D-03 -0.190386D-02 -0.344430D-02 -0.200197D-03
               11            12            13            14            15 
     11  0.213313D+00
     12  0.446352D-01  0.241463D-01
     13  0.485840D-02  0.328622D-02  0.245219D+00
     14  0.377204D-03 -0.105398D-02  0.182457D+00  0.247160D+00
     15 -0.186651D-02  0.690213D-02 -0.289502D-02  0.937681D-02  0.120832D-01
 FormGI is forming the generalized inverse of G from B-inverse, IUseBI=4.
 Force constants in internal coordinates: 
                1             2             3             4             5 
      1  0.489635D+00
      2  0.146671D-01  0.454013D+00
      3  0.133246D-01 -0.113807D-02  0.473127D+00
      4 -0.592408D-02  0.261598D-02 -0.187044D-02  0.428411D+00
      5  0.172344D-01 -0.234339D-02 -0.602511D-02 -0.539264D-02  0.115934D+00
      6  0.197241D-01 -0.584491D-02  0.115129D-02  0.536638D-02 -0.611212D-01
      7 -0.282765D-01  0.126369D-01  0.844023D-02 -0.239431D-03 -0.402669D-01
      8  0.777743D-01 -0.527581D-02  0.605333D-02  0.198205D-01 -0.978785D-02
      9  0.698865D-03 -0.723090D-02 -0.380128D-02 -0.442237D-03 -0.296325D-02
     10  0.422982D-02  0.429371D-02  0.507449D-02 -0.679968D-03  0.999481D-03
     11  0.200226D-01  0.531281D-02  0.642521D-02  0.162953D-02 -0.226768D-02
                6             7             8             9            10 
      6  0.908859D-01
      7 -0.388263D-01  0.777350D-01
      8  0.172691D-01 -0.818054D-02  0.242922D+00
      9  0.142848D-01 -0.130865D-01  0.439979D-02  0.119051D-01
     10 -0.103128D-01  0.129874D-01  0.100505D-02  0.480231D-02  0.150347D-01
     11  0.189085D-01 -0.136738D-01  0.516896D-02  0.213334D-02  0.239392D-02
               11 
     11  0.113366D-01
 Leave Link  716 at Sat Aug 10 23:39:35 2019, MaxMem=  1835008000 cpu:               0.8 elap:               0.1
 (Enter /opt/g16/l103.exe)

 GradGradGradGradGradGradGradGradGradGradGradGradGradGradGradGradGradGrad
 Berny optimization.
 Red2BG is reusing G-inverse.
 Internal  Forces:  Max     0.000007255 RMS     0.000004483
 Search for a local minimum.
 Step number   1 out of a maximum of   21 on scan point     1 out of    37
 All quantities printed in internal units (Hartrees-Bohrs-Radians)
 RMS Force = .45882D-05 SwitMx=.10000D-02 MixMth= 2
 Mixed Optimization -- En-DIIS/RFO-DIIS
 Second derivative matrix not updated -- analytic derivatives used.
 The second derivative matrix:
                          R1        R2        R3        R4        A1
           R1           0.48963
           R2           0.01467   0.45401
           R3           0.01332  -0.00114   0.47313
           R4          -0.00592   0.00262  -0.00187   0.42841
           A1           0.01723  -0.00234  -0.00603  -0.00539   0.11593
           A2           0.01972  -0.00584   0.00115   0.00537  -0.06112
           A3          -0.02828   0.01264   0.00844  -0.00024  -0.04027
           A4           0.07777  -0.00528   0.00605   0.01982  -0.00979
           D1           0.00070  -0.00723  -0.00380  -0.00044  -0.00296
           D2           0.00423   0.00429   0.00507  -0.00068   0.00100
           D3           0.02002   0.00531   0.00643   0.00163  -0.00227
                          A2        A3        A4        D1        D2
           A2           0.09089
           A3          -0.03883   0.07773
           A4           0.01727  -0.00818   0.24292
           D1           0.01428  -0.01309   0.00440   0.01191
           D2          -0.01031   0.01299   0.00101   0.00480   0.01503
           D3           0.01891  -0.01367   0.00517   0.00213   0.00239
                          D3
           D3           0.01134
 ITU=  0
     Eigenvalues ---    0.01506   0.11667   0.16182   0.22306   0.43064
     Eigenvalues ---    0.45258   0.47053   0.522971000.000001000.00000
     Eigenvalues --- 1000.00000
 RFO step:  Lambda= 0.00000000D+00 EMin= 1.50581554D-02
 Linear search not attempted -- first point.
 Iteration  1 RMS(Cart)=  0.00002318 RMS(Int)=  0.00000000
 Iteration  2 RMS(Cart)=  0.00000000 RMS(Int)=  0.00000000
 Iteration  1 RMS(Cart)=  0.00000000 RMS(Int)=  0.00000000
 ITry= 1 IFail=0 DXMaxC= 4.29D-05 DCOld= 1.00D+10 DXMaxT= 5.00D-02 DXLimC= 3.00D+00 Rises=F
 Variable       Old X    -DE/DX   Delta X   Delta X   Delta X     New X
                                 (Linear)    (Quad)   (Total)
    R1        2.53408   0.00001   0.00000   0.00002   0.00002   2.53411
    R2        1.90894  -0.00001   0.00000  -0.00002  -0.00002   1.90893
    R3        1.90147  -0.00000   0.00000  -0.00001  -0.00001   1.90146
    R4        1.92755  -0.00000   0.00000   0.00000   0.00000   1.92755
    A1        2.10864  -0.00000   0.00000  -0.00002  -0.00002   2.10862
    A2        1.98926  -0.00000   0.00000  -0.00002  -0.00002   1.98924
    A3        2.00743   0.00001   0.00000   0.00006   0.00006   2.00750
    A4        1.85249  -0.00000   0.00000  -0.00003  -0.00003   1.85246
    D1        0.43058  -0.00000   0.00000   0.00000   0.00000   0.43058
    D2        2.93570   0.00000   0.00000   0.00005   0.00005   2.93575
    D3        2.49897   0.00000   0.00000   0.00002   0.00002   2.49898
         Item               Value     Threshold  Converged?
 Maximum Force            0.000007     0.000450     YES
 RMS     Force            0.000005     0.000300     YES
 Maximum Displacement     0.000043     0.001800     YES
 RMS     Displacement     0.000023     0.001200     YES
 Predicted change in Energy=-5.527214D-10
 Optimization completed.
    -- Stationary point found.
                           ----------------------------
                           !   Optimized Parameters   !
                           ! (Angstroms and Degrees)  !
 --------------------------                            --------------------------
 ! Name  Definition              Value          Derivative Info.                !
 --------------------------------------------------------------------------------
 ! R1    R(1,2)                  1.341          -DE/DX =    0.0                 !
 ! R2    R(1,3)                  1.0102         -DE/DX =    0.0                 !
 ! R3    R(1,4)                  1.0062         -DE/DX =    0.0                 !
 ! R4    R(2,5)                  1.02           -DE/DX =    0.0                 !
 ! A1    A(2,1,3)              120.8163         -DE/DX =    0.0                 !
 ! A2    A(2,1,4)              113.9762         -DE/DX =    0.0                 !
 ! A3    A(3,1,4)              115.0174         -DE/DX =    0.0                 !
 ! A4    A(1,2,5)              106.1399         -DE/DX =    0.0                 !
 ! D1    D(3,1,2,5)             24.6703         -DE/DX =    0.0                 !
 ! D2    D(4,1,2,5)            168.2034         -DE/DX =    0.0                 !
 ! D3    D(2,1,3,4)            143.1802         -DE/DX =    0.0                 !
 --------------------------------------------------------------------------------
 Lowest energy point so far.  Saving SCF results.
 Iteration  1 RMS(Cart)=  0.02841486 RMS(Int)=  0.02987721
 Iteration  2 RMS(Cart)=  0.00126766 RMS(Int)=  0.02983940
 Iteration  3 RMS(Cart)=  0.00002420 RMS(Int)=  0.02983939
 Iteration  4 RMS(Cart)=  0.00000093 RMS(Int)=  0.02983939
 Iteration  1 RMS(Cart)=  0.00922340 RMS(Int)=  0.00950625
 Iteration  2 RMS(Cart)=  0.00296456 RMS(Int)=  0.01047776
 Iteration  3 RMS(Cart)=  0.00094317 RMS(Int)=  0.01114628
 Iteration  4 RMS(Cart)=  0.00029910 RMS(Int)=  0.01138671
 Iteration  5 RMS(Cart)=  0.00009476 RMS(Int)=  0.01146547
 Iteration  6 RMS(Cart)=  0.00003001 RMS(Int)=  0.01149067
 Iteration  7 RMS(Cart)=  0.00000950 RMS(Int)=  0.01149867
 Iteration  8 RMS(Cart)=  0.00000301 RMS(Int)=  0.01150121
 Iteration  9 RMS(Cart)=  0.00000095 RMS(Int)=  0.01150201
 GradGradGradGradGradGradGradGradGradGradGradGradGradGradGradGradGradGrad

 Leave Link  103 at Sat Aug 10 23:39:46 2019, MaxMem=  1835008000 cpu:              61.6 elap:              10.7
 (Enter /opt/g16/l202.exe)
                          Input orientation:                          
 ---------------------------------------------------------------------
 Center     Atomic      Atomic             Coordinates (Angstroms)
 Number     Number       Type             X           Y           Z
 ---------------------------------------------------------------------
      1          7           0       -0.417375    0.009014    0.181063
      2          7           0        0.754621   -0.571572   -0.115263
      3          1           0       -0.576840    0.975726   -0.065033
      4          1           0       -1.224629   -0.567415    0.012122
      5          1           0        1.464223    0.154246   -0.012889
 ---------------------------------------------------------------------
                    Distance matrix (angstroms):
                    1          2          3          4          5
     1  N    0.000000
     2  N    1.341068   0.000000
     3  H    1.010210   2.041921   0.000000
     4  H    1.006216   1.983349   1.675371   0.000000
     5  H    1.897135   1.020209   2.200792   2.784123   0.000000
 Stoichiometry    H3N2(2)
 Framework group  C1[X(H3N2)]
 Deg. of freedom     9
 Full point group                 C1      NOp   1
 RotChk:  IX=0 Diff= 5.02D-02
 Largest Abelian subgroup         C1      NOp   1
 Largest concise Abelian subgroup C1      NOp   1
                         Standard orientation:                         
 ---------------------------------------------------------------------
 Center     Atomic      Atomic             Coordinates (Angstroms)
 Number     Number       Type             X           Y           Z
 ---------------------------------------------------------------------
      1          7           0        0.590418    0.027984   -0.079671
      2          7           0       -0.733517   -0.151429    0.036386
      3          1           0        1.014465    0.880580    0.257656
      4          1           0        1.143327   -0.785213    0.133571
      5          1           0       -1.156097    0.768747   -0.088233
 ---------------------------------------------------------------------
 Rotational constants (GHZ):         207.6798988          30.9371579          27.4513480
 Leave Link  202 at Sat Aug 10 23:39:46 2019, MaxMem=  1835008000 cpu:               0.5 elap:               0.1
 (Enter /opt/g16/l301.exe)
 Standard basis: def2TZVP (5D, 7F)
 Ernie: Thresh=  0.10000D-02 Tol=  0.10000D-05 Strict=F.
 There are    90 symmetry adapted cartesian basis functions of A   symmetry.
 There are    80 symmetry adapted basis functions of A   symmetry.
    80 basis functions,   126 primitive gaussians,    90 cartesian basis functions
     9 alpha electrons        8 beta electrons
       nuclear repulsion energy        36.6948032051 Hartrees.
 IExCor= 4639 DFT=T Ex+Corr=wB97XD ExCW=0 ScaHFX=  1.000000
 ScaDFX=  1.000000  1.000000  1.000000  1.000000 ScalE2=  1.000000  1.000000
 IRadAn=      5 IRanWt=     -1 IRanGd=            0 ICorTp=0 IEmpDi=121
 HFx  wShort=  0.000000 wLong=  0.200000 cFull=  0.222036 cShort=  0.000000 cLong=  0.777964
 DFx  wShort=  0.000000 wLong=  0.200000 cFull=  0.000000 cShort=  0.000000 cLong=  1.000000
 NAtoms=    5 NActive=    5 NUniq=    5 SFac= 1.00D+00 NAtFMM=   60 NAOKFM=F Big=F
 Integral buffers will be    131072 words long.
 Raffenetti 2 integral format.
 Two-electron integral symmetry is turned on.
 R6Disp:  Grimme-D2 Dispersion energy=       -0.0004427186 Hartrees.
 Nuclear repulsion after empirical dispersion term =       36.6943604865 Hartrees.
 Leave Link  301 at Sat Aug 10 23:39:46 2019, MaxMem=  1835008000 cpu:               0.8 elap:               0.2
 (Enter /opt/g16/l302.exe)
 NPDir=0 NMtPBC=     1 NCelOv=     1 NCel=       1 NClECP=     1 NCelD=      1
         NCelK=      1 NCelE2=     1 NClLst=     1 CellRange=     0.0.
 One-electron integrals computed using PRISM.
 One-electron integral symmetry used in STVInt
   1 Symmetry operations used in ECPInt.
 ECPInt:  NShTT=     595 NPrTT=    1764 LenC2=     595 LenP2D=    1624.
 LDataN:  DoStor=T MaxTD1= 6 Len=  172
 NBasis=    80 RedAO= T EigKep=  1.33D-03  NBF=    80
 NBsUse=    80 1.00D-06 EigRej= -1.00D+00 NBFU=    80
 Precomputing XC quadrature grid using
 IXCGrd= 4 IRadAn=           5 IRanWt=          -1 IRanGd=           0 AccXCQ= 1.00D-12.
 Generated NRdTot=       0 NPtTot=           0 NUsed=           0 NTot=          32
 NSgBfM=    90    90    90    90    90 MxSgAt=     5 MxSgA2=     5.
 Leave Link  302 at Sat Aug 10 23:39:46 2019, MaxMem=  1835008000 cpu:               3.2 elap:               0.4
 (Enter /opt/g16/l303.exe)
 DipDrv:  MaxL=1.
 Leave Link  303 at Sat Aug 10 23:39:47 2019, MaxMem=  1835008000 cpu:               2.8 elap:               0.4
 (Enter /opt/g16/l401.exe)
 Initial guess from the checkpoint file:  "check.chk"
 B after Tr=     0.000000   -0.000000   -0.000000
         Rot=    0.999997   -0.001785   -0.000259   -0.001781 Ang=  -0.29 deg.
 Guess basis will be translated and rotated to current coordinates.
 JPrj=2 DoOrth=T DoCkMO=T.
 Initial guess <Sx>= 0.0000 <Sy>= 0.0000 <Sz>= 0.5000 <S**2>= 0.7546 S= 0.5023
 Generating alternative initial guess.
 ExpMin= 1.03D-01 ExpMax= 1.97D+04 ExpMxC= 6.73D+02 IAcc=3 IRadAn=         5 AccDes= 0.00D+00
 Harris functional with IExCor= 4639 and IRadAn=       5 diagonalized for initial guess.
 HarFok:  IExCor= 4639 AccDes= 0.00D+00 IRadAn=         5 IDoV= 1 UseB2=F ITyADJ=14
 ICtDFT=  3500011 ScaDFX=  1.000000  1.000000  1.000000  1.000000
 FoFCou: FMM=F IPFlag=           0 FMFlag=      100000 FMFlg1=           0
         NFxFlg=           0 DoJE=T BraDBF=F KetDBF=T FulRan=T
         wScrn=  0.000000 ICntrl=       500 IOpCl=  0 I1Cent=   200000004 NGrid=           0
         NMat0=    1 NMatS0=      1 NMatT0=    0 NMatD0=    1 NMtDS0=    0 NMtDT0=    0
 Petite list used in FoFCou.
 Harris En= -106.666050609007    
 Leave Link  401 at Sat Aug 10 23:39:51 2019, MaxMem=  1835008000 cpu:              25.4 elap:               4.3
 (Enter /opt/g16/l502.exe)
 Keep R1 and R2 ints in memory in canonical form, NReq=28315865.
 FoFCou: FMM=F IPFlag=           0 FMFlag=           0 FMFlg1=           0
         NFxFlg=           0 DoJE=F BraDBF=F KetDBF=F FulRan=T
         wScrn=  0.000000 ICntrl=       600 IOpCl=  0 I1Cent=           0 NGrid=           0
         NMat0=    1 NMatS0=   3240 NMatT0=    0 NMatD0=    1 NMtDS0=    0 NMtDT0=    0
 Symmetry not used in FoFCou.
 Two-electron integral symmetry not used.
 UHF open shell SCF:
 Using DIIS extrapolation, IDIIS=  1040.
 NGot=  1835008000 LenX=  1813988435 LenY=  1813979894
 Requested convergence on RMS density matrix=1.00D-08 within  32 cycles.
 Requested convergence on MAX density matrix=1.00D-06.
 Requested convergence on             energy=1.00D-06.
 No special actions if energy rises.
 Integral accuracy reduced to 1.0D-05 until final iterations.

 Cycle   1  Pass 0  IDiag  1:
 E= -111.237527037778    
 DIIS: error= 2.64D-03 at cycle   1 NSaved=   1.
 NSaved= 1 IEnMin= 1 EnMin= -111.237527037778     IErMin= 1 ErrMin= 2.64D-03
 ErrMax= 2.64D-03  0.00D+00 EMaxC= 1.00D-01 BMatC= 3.70D-03 BMatP= 3.70D-03
 IDIUse=3 WtCom= 9.74D-01 WtEn= 2.64D-02
 Coeff-Com:  0.100D+01
 Coeff-En:   0.100D+01
 Coeff:      0.100D+01
 Gap=     0.800 Goal=   None    Shift=    0.000
 Gap=     0.893 Goal=   None    Shift=    0.000
 GapD=    0.800 DampG=2.000 DampE=1.000 DampFc=2.0000 IDamp=-1.
 RMSDP=4.12D-04 MaxDP=7.97D-03              OVMax= 1.70D-02

 Cycle   2  Pass 0  IDiag  1:
 E= -111.238678638679     Delta-E=       -0.001151600902 Rises=F Damp=F
 DIIS: error= 6.21D-04 at cycle   2 NSaved=   2.
 NSaved= 2 IEnMin= 2 EnMin= -111.238678638679     IErMin= 2 ErrMin= 6.21D-04
 ErrMax= 6.21D-04  0.00D+00 EMaxC= 1.00D-01 BMatC= 1.27D-04 BMatP= 3.70D-03
 IDIUse=3 WtCom= 9.94D-01 WtEn= 6.21D-03
 Coeff-Com: -0.150D+00 0.115D+01
 Coeff-En:   0.000D+00 0.100D+01
 Coeff:     -0.149D+00 0.115D+01
 Gap=     0.376 Goal=   None    Shift=    0.000
 Gap=     0.394 Goal=   None    Shift=    0.000
 RMSDP=1.64D-04 MaxDP=3.42D-03 DE=-1.15D-03 OVMax= 7.05D-03

 Cycle   3  Pass 0  IDiag  1:
 E= -111.238773473614     Delta-E=       -0.000094834935 Rises=F Damp=F
 DIIS: error= 2.11D-04 at cycle   3 NSaved=   3.
 NSaved= 3 IEnMin= 3 EnMin= -111.238773473614     IErMin= 3 ErrMin= 2.11D-04
 ErrMax= 2.11D-04  0.00D+00 EMaxC= 1.00D-01 BMatC= 1.12D-05 BMatP= 1.27D-04
 IDIUse=3 WtCom= 9.98D-01 WtEn= 2.11D-03
 Coeff-Com:  0.202D-01-0.292D+00 0.127D+01
 Coeff-En:   0.000D+00 0.000D+00 0.100D+01
 Coeff:      0.202D-01-0.291D+00 0.127D+01
 Gap=     0.376 Goal=   None    Shift=    0.000
 Gap=     0.394 Goal=   None    Shift=    0.000
 RMSDP=7.25D-05 MaxDP=1.47D-03 DE=-9.48D-05 OVMax= 3.15D-03

 Cycle   4  Pass 0  IDiag  1:
 E= -111.238786221471     Delta-E=       -0.000012747857 Rises=F Damp=F
 DIIS: error= 1.02D-04 at cycle   4 NSaved=   4.
 NSaved= 4 IEnMin= 4 EnMin= -111.238786221471     IErMin= 4 ErrMin= 1.02D-04
 ErrMax= 1.02D-04  0.00D+00 EMaxC= 1.00D-01 BMatC= 3.71D-06 BMatP= 1.12D-05
 IDIUse=3 WtCom= 9.99D-01 WtEn= 1.02D-03
 Coeff-Com:  0.235D-01-0.232D+00 0.453D+00 0.756D+00
 Coeff-En:   0.000D+00 0.000D+00 0.000D+00 0.100D+01
 Coeff:      0.235D-01-0.232D+00 0.452D+00 0.756D+00
 Gap=     0.376 Goal=   None    Shift=    0.000
 Gap=     0.394 Goal=   None    Shift=    0.000
 RMSDP=2.31D-05 MaxDP=4.52D-04 DE=-1.27D-05 OVMax= 1.30D-03

 Cycle   5  Pass 0  IDiag  1:
 E= -111.238788616831     Delta-E=       -0.000002395360 Rises=F Damp=F
 DIIS: error= 6.46D-05 at cycle   5 NSaved=   5.
 NSaved= 5 IEnMin= 5 EnMin= -111.238788616831     IErMin= 5 ErrMin= 6.46D-05
 ErrMax= 6.46D-05  0.00D+00 EMaxC= 1.00D-01 BMatC= 5.62D-07 BMatP= 3.71D-06
 IDIUse=1 WtCom= 1.00D+00 WtEn= 0.00D+00
 Coeff-Com: -0.675D-02 0.886D-01-0.342D+00-0.737D-01 0.133D+01
 Coeff:     -0.675D-02 0.886D-01-0.342D+00-0.737D-01 0.133D+01
 Gap=     0.376 Goal=   None    Shift=    0.000
 Gap=     0.394 Goal=   None    Shift=    0.000
 RMSDP=1.96D-05 MaxDP=4.21D-04 DE=-2.40D-06 OVMax= 1.42D-03

 Cycle   6  Pass 0  IDiag  1:
 E= -111.238789589770     Delta-E=       -0.000000972939 Rises=F Damp=F
 DIIS: error= 2.90D-05 at cycle   6 NSaved=   6.
 NSaved= 6 IEnMin= 6 EnMin= -111.238789589770     IErMin= 6 ErrMin= 2.90D-05
 ErrMax= 2.90D-05  0.00D+00 EMaxC= 1.00D-01 BMatC= 8.83D-08 BMatP= 5.62D-07
 IDIUse=1 WtCom= 1.00D+00 WtEn= 0.00D+00
 Coeff-Com: -0.392D-02 0.387D-01-0.833D-01-0.118D+00 0.542D-01 0.111D+01
 Coeff:     -0.392D-02 0.387D-01-0.833D-01-0.118D+00 0.542D-01 0.111D+01
 Gap=     0.376 Goal=   None    Shift=    0.000
 Gap=     0.394 Goal=   None    Shift=    0.000
 RMSDP=6.47D-06 MaxDP=9.90D-05 DE=-9.73D-07 OVMax= 6.04D-04

 Initial convergence to 1.0D-05 achieved.  Increase integral accuracy.
 Cycle   7  Pass 1  IDiag  1:
 E= -111.238781341358     Delta-E=        0.000008248412 Rises=F Damp=F
 DIIS: error= 1.09D-05 at cycle   1 NSaved=   1.
 NSaved= 1 IEnMin= 1 EnMin= -111.238781341358     IErMin= 1 ErrMin= 1.09D-05
 ErrMax= 1.09D-05  0.00D+00 EMaxC= 1.00D-01 BMatC= 5.40D-08 BMatP= 5.40D-08
 IDIUse=1 WtCom= 1.00D+00 WtEn= 0.00D+00
 Coeff-Com:  0.100D+01
 Coeff:      0.100D+01
 Gap=     0.376 Goal=   None    Shift=    0.000
 Gap=     0.394 Goal=   None    Shift=    0.000
 RMSDP=6.47D-06 MaxDP=9.90D-05 DE= 8.25D-06 OVMax= 1.57D-04

 Cycle   8  Pass 1  IDiag  1:
 E= -111.238781364335     Delta-E=       -0.000000022977 Rises=F Damp=F
 DIIS: error= 8.48D-06 at cycle   2 NSaved=   2.
 NSaved= 2 IEnMin= 2 EnMin= -111.238781364335     IErMin= 2 ErrMin= 8.48D-06
 ErrMax= 8.48D-06  0.00D+00 EMaxC= 1.00D-01 BMatC= 2.13D-08 BMatP= 5.40D-08
 IDIUse=1 WtCom= 1.00D+00 WtEn= 0.00D+00
 Coeff-Com:  0.289D+00 0.711D+00
 Coeff:      0.289D+00 0.711D+00
 Gap=     0.376 Goal=   None    Shift=    0.000
 Gap=     0.394 Goal=   None    Shift=    0.000
 RMSDP=9.32D-07 MaxDP=1.33D-05 DE=-2.30D-08 OVMax= 6.14D-05

 Cycle   9  Pass 1  IDiag  1:
 E= -111.238781372292     Delta-E=       -0.000000007957 Rises=F Damp=F
 DIIS: error= 6.52D-06 at cycle   3 NSaved=   3.
 NSaved= 3 IEnMin= 3 EnMin= -111.238781372292     IErMin= 3 ErrMin= 6.52D-06
 ErrMax= 6.52D-06  0.00D+00 EMaxC= 1.00D-01 BMatC= 7.55D-09 BMatP= 2.13D-08
 IDIUse=1 WtCom= 1.00D+00 WtEn= 0.00D+00
 Coeff-Com: -0.139D+00 0.300D+00 0.840D+00
 Coeff:     -0.139D+00 0.300D+00 0.840D+00
 Gap=     0.376 Goal=   None    Shift=    0.000
 Gap=     0.394 Goal=   None    Shift=    0.000
 RMSDP=9.10D-07 MaxDP=1.34D-05 DE=-7.96D-09 OVMax= 8.50D-05

 Cycle  10  Pass 1  IDiag  1:
 E= -111.238781378133     Delta-E=       -0.000000005840 Rises=F Damp=F
 DIIS: error= 4.26D-06 at cycle   4 NSaved=   4.
 NSaved= 4 IEnMin= 4 EnMin= -111.238781378133     IErMin= 4 ErrMin= 4.26D-06
 ErrMax= 4.26D-06  0.00D+00 EMaxC= 1.00D-01 BMatC= 1.44D-09 BMatP= 7.55D-09
 IDIUse=1 WtCom= 1.00D+00 WtEn= 0.00D+00
 Coeff-Com:  0.222D-01-0.449D+00-0.519D+00 0.195D+01
 Coeff:      0.222D-01-0.449D+00-0.519D+00 0.195D+01
 Gap=     0.376 Goal=   None    Shift=    0.000
 Gap=     0.394 Goal=   None    Shift=    0.000
 RMSDP=1.15D-06 MaxDP=1.71D-05 DE=-5.84D-09 OVMax= 1.18D-04

 Cycle  11  Pass 1  IDiag  1:
 E= -111.238781381430     Delta-E=       -0.000000003298 Rises=F Damp=F
 DIIS: error= 8.08D-07 at cycle   5 NSaved=   5.
 NSaved= 5 IEnMin= 5 EnMin= -111.238781381430     IErMin= 5 ErrMin= 8.08D-07
 ErrMax= 8.08D-07  0.00D+00 EMaxC= 1.00D-01 BMatC= 1.65D-10 BMatP= 1.44D-09
 IDIUse=1 WtCom= 1.00D+00 WtEn= 0.00D+00
 Coeff-Com:  0.245D-01-0.197D+00-0.264D+00 0.665D+00 0.771D+00
 Coeff:      0.245D-01-0.197D+00-0.264D+00 0.665D+00 0.771D+00
 Gap=     0.376 Goal=   None    Shift=    0.000
 Gap=     0.394 Goal=   None    Shift=    0.000
 RMSDP=1.92D-07 MaxDP=3.20D-06 DE=-3.30D-09 OVMax= 2.15D-05

 Cycle  12  Pass 1  IDiag  1:
 E= -111.238781381577     Delta-E=       -0.000000000147 Rises=F Damp=F
 DIIS: error= 2.49D-07 at cycle   6 NSaved=   6.
 NSaved= 6 IEnMin= 6 EnMin= -111.238781381577     IErMin= 6 ErrMin= 2.49D-07
 ErrMax= 2.49D-07  0.00D+00 EMaxC= 1.00D-01 BMatC= 1.94D-11 BMatP= 1.65D-10
 IDIUse=1 WtCom= 1.00D+00 WtEn= 0.00D+00
 Coeff-Com: -0.691D-03 0.477D-01 0.599D-01-0.252D+00 0.102D+00 0.104D+01
 Coeff:     -0.691D-03 0.477D-01 0.599D-01-0.252D+00 0.102D+00 0.104D+01
 Gap=     0.376 Goal=   None    Shift=    0.000
 Gap=     0.394 Goal=   None    Shift=    0.000
 RMSDP=7.58D-08 MaxDP=1.23D-06 DE=-1.47D-10 OVMax= 7.22D-06

 Cycle  13  Pass 1  IDiag  1:
 E= -111.238781381596     Delta-E=       -0.000000000019 Rises=F Damp=F
 DIIS: error= 8.89D-08 at cycle   7 NSaved=   7.
 NSaved= 7 IEnMin= 7 EnMin= -111.238781381596     IErMin= 7 ErrMin= 8.89D-08
 ErrMax= 8.89D-08  0.00D+00 EMaxC= 1.00D-01 BMatC= 1.99D-12 BMatP= 1.94D-11
 IDIUse=1 WtCom= 1.00D+00 WtEn= 0.00D+00
 Coeff-Com: -0.350D-02 0.292D-01 0.384D-01-0.976D-01-0.988D-01 0.143D-01
 Coeff-Com:  0.112D+01
 Coeff:     -0.350D-02 0.292D-01 0.384D-01-0.976D-01-0.988D-01 0.143D-01
 Coeff:      0.112D+01
 Gap=     0.376 Goal=   None    Shift=    0.000
 Gap=     0.394 Goal=   None    Shift=    0.000
 RMSDP=3.44D-08 MaxDP=7.33D-07 DE=-1.90D-11 OVMax= 1.56D-06

 Cycle  14  Pass 1  IDiag  1:
 E= -111.238781381598     Delta-E=       -0.000000000002 Rises=F Damp=F
 DIIS: error= 2.56D-08 at cycle   8 NSaved=   8.
 NSaved= 8 IEnMin= 8 EnMin= -111.238781381598     IErMin= 8 ErrMin= 2.56D-08
 ErrMax= 2.56D-08  0.00D+00 EMaxC= 1.00D-01 BMatC= 1.73D-13 BMatP= 1.99D-12
 IDIUse=1 WtCom= 1.00D+00 WtEn= 0.00D+00
 Coeff-Com: -0.130D-03-0.323D-02-0.387D-02 0.193D-01-0.143D-01-0.119D+00
 Coeff-Com:  0.144D-01 0.111D+01
 Coeff:     -0.130D-03-0.323D-02-0.387D-02 0.193D-01-0.143D-01-0.119D+00
 Coeff:      0.144D-01 0.111D+01
 Gap=     0.376 Goal=   None    Shift=    0.000
 Gap=     0.394 Goal=   None    Shift=    0.000
 RMSDP=1.19D-08 MaxDP=2.97D-07 DE=-2.27D-12 OVMax= 5.63D-07

 Cycle  15  Pass 1  IDiag  1:
 E= -111.238781381599     Delta-E=       -0.000000000000 Rises=F Damp=F
 DIIS: error= 7.22D-09 at cycle   9 NSaved=   9.
 NSaved= 9 IEnMin= 9 EnMin= -111.238781381599     IErMin= 9 ErrMin= 7.22D-09
 ErrMax= 7.22D-09  0.00D+00 EMaxC= 1.00D-01 BMatC= 9.70D-15 BMatP= 1.73D-13
 IDIUse=1 WtCom= 1.00D+00 WtEn= 0.00D+00
 Coeff-Com:  0.235D-03-0.150D-02-0.171D-02 0.357D-02 0.753D-02 0.134D-01
 Coeff-Com: -0.605D-01-0.187D+00 0.123D+01
 Coeff:      0.235D-03-0.150D-02-0.171D-02 0.357D-02 0.753D-02 0.134D-01
 Coeff:     -0.605D-01-0.187D+00 0.123D+01
 Gap=     0.376 Goal=   None    Shift=    0.000
 Gap=     0.394 Goal=   None    Shift=    0.000
 RMSDP=3.26D-09 MaxDP=9.15D-08 DE=-2.56D-13 OVMax= 1.71D-07

 SCF Done:  E(UwB97XD) =  -111.238781382     A.U. after   15 cycles
            NFock= 15  Conv=0.33D-08     -V/T= 2.0041
 <Sx>= 0.0000 <Sy>= 0.0000 <Sz>= 0.5000 <S**2>= 0.7546 S= 0.5023
 <L.S>= 0.000000000000E+00
 KE= 1.107890788788D+02 PE=-3.337628354961D+02 EE= 7.504061474915D+01
 Annihilation of the first spin contaminant:
 S**2 before annihilation     0.7546,   after     0.7500
 Leave Link  502 at Sat Aug 10 23:40:02 2019, MaxMem=  1835008000 cpu:              77.3 elap:              10.6
 (Enter /opt/g16/l508.exe)
 QCSCF skips out because SCF is already converged.
 Leave Link  508 at Sat Aug 10 23:40:02 2019, MaxMem=  1835008000 cpu:               0.0 elap:               0.0
 (Enter /opt/g16/l701.exe)
 ... and contract with generalized density number  0.
 Compute integral first derivatives.
 R6Disp: Adding Grimme-D2 dispersion energy 1st derivatives to the gradient.
   1 Symmetry operations used in ECPInt.
 ECPInt:  NShTT=     595 NPrTT=    1764 LenC2=     595 LenP2D=    1624.
 LDataN:  DoStor=T MaxTD1= 7 Len=  274
 Leave Link  701 at Sat Aug 10 23:40:03 2019, MaxMem=  1835008000 cpu:               6.6 elap:               0.8
 (Enter /opt/g16/l702.exe)
 L702 exits ... SP integral derivatives will be done elsewhere.
 Leave Link  702 at Sat Aug 10 23:40:03 2019, MaxMem=  1835008000 cpu:               0.4 elap:               0.1
 (Enter /opt/g16/l703.exe)
 Integral derivatives from FoFJK, PRISM(SPDF).
 Compute integral first derivatives, UseDBF=F ICtDFT=           0.
 Calling FoFJK, ICntrl=      2127 FMM=F ISym2X=0 I1Cent= 0 IOpClX= 1 NMat=1 NMatS=1 NMatT=0.
 FoFJK:  IHMeth= 1 ICntrl=    2127 DoSepK=T KAlg= 0 I1Cent=           0 FoldK=F
 IRaf=         1 NMat=       1 IRICut=       1 DoRegI=T DoRafI=F ISym2E= 0 IDoP0=0 IntGTp=1.
 FoFCou: FMM=F IPFlag=           0 FMFlag=      100000 FMFlg1=         800
         NFxFlg=           0 DoJE=F BraDBF=F KetDBF=F FulRan=T
         wScrn=  0.000000 ICntrl=      2527 IOpCl=  0 I1Cent=           0 NGrid=           0
         NMat0=    1 NMatS0=      1 NMatT0=    0 NMatD0=    1 NMtDS0=    0 NMtDT0=    0
 Symmetry not used in FoFCou.
 Leave Link  703 at Sat Aug 10 23:40:07 2019, MaxMem=  1835008000 cpu:              35.6 elap:               4.5
 (Enter /opt/g16/l716.exe)
 Dipole        = 7.81505145D-01 6.40485487D-01 2.48068073D-01
 ***** Axes restored to original set *****
 -------------------------------------------------------------------
 Center     Atomic                   Forces (Hartrees/Bohr)
 Number     Number              X              Y              Z
 -------------------------------------------------------------------
      1        7          -0.002241385    0.002614158   -0.001213691
      2        7          -0.000251257   -0.002825522    0.002621051
      3        1           0.001744699    0.002808325    0.001844845
      4        1           0.001401093   -0.003559910   -0.001070412
      5        1          -0.000653151    0.000962949   -0.002181792
 -------------------------------------------------------------------
 Cartesian Forces:  Max     0.003559910 RMS     0.002073279
 Leave Link  716 at Sat Aug 10 23:40:07 2019, MaxMem=  1835008000 cpu:               0.4 elap:               0.1
 (Enter /opt/g16/l103.exe)

 GradGradGradGradGradGradGradGradGradGradGradGradGradGradGradGradGradGrad
 Berny optimization.
 FormGI is forming the generalized inverse of G from B-inverse, IUseBI=4.
 Internal  Forces:  Max     0.003962886 RMS     0.002123950
 Search for a local minimum.
 Step number   1 out of a maximum of   21 on scan point     2 out of    37
 All quantities printed in internal units (Hartrees-Bohrs-Radians)
 RMS Force = .18000D-02 SwitMx=.10000D-02 MixMth= 1
 Mixed Optimization -- RFO/linear search
 Second derivative matrix not updated -- first step.
 The second derivative matrix:
                          R1        R2        R3        R4        A1
           R1           0.48963
           R2           0.01467   0.45401
           R3           0.01332  -0.00114   0.47313
           R4          -0.00592   0.00262  -0.00187   0.42841
           A1           0.01723  -0.00234  -0.00603  -0.00539   0.11593
           A2           0.01972  -0.00584   0.00115   0.00537  -0.06112
           A3          -0.02828   0.01264   0.00844  -0.00024  -0.04027
           A4           0.07777  -0.00528   0.00605   0.01982  -0.00979
           D1           0.00070  -0.00723  -0.00380  -0.00044  -0.00296
           D2           0.00423   0.00429   0.00507  -0.00068   0.00100
           D3           0.02002   0.00531   0.00643   0.00163  -0.00227
                          A2        A3        A4        D1        D2
           A2           0.09089
           A3          -0.03883   0.07773
           A4           0.01727  -0.00818   0.24292
           D1           0.01428  -0.01309   0.00440   0.01191
           D2          -0.01031   0.01299   0.00101   0.00480   0.01503
           D3           0.01891  -0.01367   0.00517   0.00213   0.00239
                          D3
           D3           0.01134
 ITU=  0
     Eigenvalues ---    0.01507   0.11593   0.16144   0.22299   0.43064
     Eigenvalues ---    0.45256   0.47052   0.522961000.000001000.00000
     Eigenvalues --- 1000.00000
 RFO step:  Lambda=-2.64517257D-04 EMin= 1.50688881D-02
 Linear search not attempted -- first point.
 Iteration  1 RMS(Cart)=  0.01634382 RMS(Int)=  0.00042465
 Iteration  2 RMS(Cart)=  0.00031988 RMS(Int)=  0.00024139
 Iteration  3 RMS(Cart)=  0.00000005 RMS(Int)=  0.00024139
 Iteration  1 RMS(Cart)=  0.00006831 RMS(Int)=  0.00007000
 Iteration  2 RMS(Cart)=  0.00002192 RMS(Int)=  0.00007725
 Iteration  3 RMS(Cart)=  0.00000703 RMS(Int)=  0.00008223
 Iteration  4 RMS(Cart)=  0.00000226 RMS(Int)=  0.00008405
 Iteration  5 RMS(Cart)=  0.00000072 RMS(Int)=  0.00008465
 ITry= 1 IFail=0 DXMaxC= 2.57D-02 DCOld= 1.00D+10 DXMaxT= 5.00D-02 DXLimC= 3.00D+00 Rises=F
 Variable       Old X    -DE/DX   Delta X   Delta X   Delta X     New X
                                 (Linear)    (Quad)   (Total)
    R1        2.53425  -0.00008   0.00000   0.00494   0.00494   2.53919
    R2        1.90902   0.00196   0.00000   0.00418   0.00418   1.91320
    R3        1.90147   0.00110   0.00000   0.00301   0.00301   1.90448
    R4        1.92792   0.00001   0.00000   0.00066   0.00066   1.92858
    A1        2.09256   0.00101   0.00000  -0.00835  -0.00863   2.08393
    A2        1.99985  -0.00396   0.00000  -0.03544  -0.03560   1.96426
    A3        1.96131   0.00369   0.00000   0.01456   0.01402   1.97532
    A4        1.85218  -0.00102   0.00000  -0.00189  -0.00189   1.85028
    D1        0.60511  -0.00343   0.00000   0.00000   0.00000   0.60511
    D2        3.01773  -0.00104   0.00000  -0.03422  -0.03361   2.98411
    D3        2.42735  -0.00057   0.00000  -0.05247  -0.05283   2.37453
         Item               Value     Threshold  Converged?
 Maximum Force            0.003769     0.000450     NO 
 RMS     Force            0.001800     0.000300     NO 
 Maximum Displacement     0.025701     0.001800     NO 
 RMS     Displacement     0.016385     0.001200     NO 
 Predicted change in Energy=-1.317018D-04
 Lowest energy point so far.  Saving SCF results.
 GradGradGradGradGradGradGradGradGradGradGradGradGradGradGradGradGradGrad

 Leave Link  103 at Sat Aug 10 23:40:07 2019, MaxMem=  1835008000 cpu:               0.2 elap:               0.0
[...]
           A4         103.57161 107.24122 106.76626 106.40819 106.17552
           D1         124.67028 134.67029 144.67029 154.67030 164.67025
           D2        -129.63216   3.73744  10.53816  17.15653  23.14556
           D3         107.55026-134.32782-137.20999-140.18682-143.82682
                          16        17        18        19        20
     Eigenvalues --    -0.23903  -0.23899  -0.23917  -0.23847  -0.23688
           R1           1.33906   1.33881   1.34181   1.34411   1.34626
           R2           1.00516   1.00503   1.00662   1.00804   1.00936
           R3           1.00927   1.00918   1.01047   1.01134   1.01207
           R4           1.02002   1.02003   1.01998   1.02007   1.02030
           A1         114.56934 114.67480 113.78871 113.29551 113.06419
           A2         121.71711 121.78593 120.48344 119.42340 118.53086
           A3         116.10908 116.23861 114.59648 113.15893 111.90432
           A4         106.12022 106.12478 106.17358 106.39697 106.75515
           D1         174.67041-175.32967-165.32963-155.32974-145.32974
           D2          26.30580 -26.34015 -23.39390 -18.06911 -11.46162
           D3        -150.20614 150.77540 144.24318 139.98897 136.94741
                          21        22        23        24        25
     Eigenvalues --    -0.23443  -0.23115  -0.22709  -0.22233  -0.21707
           R1           1.34845   1.35119   1.35525   1.36099   1.37084
           R2           1.01074   1.01216   1.01371   1.01532   1.01695
           R3           1.01292   1.01397   1.01545   1.01706   1.01878
           R4           1.02081   1.02163   1.02278   1.02417   1.02585
           A1         112.92132 112.77878 112.43681 111.89197 111.08152
           A2         117.65448 116.72659 115.55596 114.40154 112.89820
           A3         110.68564 109.42039 108.00615 106.53883 104.88198
           A4         107.20316 107.68358 108.13525 108.52042 108.66798
           D1        -135.32969-125.32969-115.32969-105.32962 -95.32964
           D2          -4.44326   2.63708   9.29180  15.94725  22.16230
           D3         134.29209 131.70156 128.68028 125.71660 122.27081
                          26        27        28        29        30
     Eigenvalues --    -0.21168  -0.20682  -0.20328  -0.20198  -0.23779
           R1           1.38496   1.40157   1.41712   1.42225   1.34657
           R2           1.01895   1.02102   1.02234   1.02044   1.01466
           R3           1.02050   1.02198   1.02264   1.02046   1.00928
           R4           1.02770   1.02965   1.03113   1.03236   1.02125
           A1         109.72982 108.30293 107.37293 108.30277 118.34593
           A2         111.19792 109.58335 108.30764 108.13680 111.41528
           A3         103.28927 102.09316 101.99453 104.94167 111.39044
           A4         108.57800 108.26848 107.86260 107.66688 105.86222
           D1         -85.32972 -75.32961 -65.32964 -55.32974 -45.32960
           D2          28.31213  35.27329  44.11385  57.88142-176.38052
           D3         118.64748 115.58955 113.76270 115.31642-131.06209
                          31        32        33        34        35
     Eigenvalues --    -0.23886  -0.23921  -0.23901  -0.23858  -0.23856
           R1           1.34380   1.34114   1.33840   1.33562   1.33540
           R2           1.01249   1.01030   1.00809   1.00598   1.00552
           R3           1.00779   1.00631   1.00463   1.00275   1.00227
           R4           1.02057   1.02002   1.01964   1.01939   1.01929
           A1         119.48611 120.70453 122.18523 123.84056 124.02623
           A2         112.59273 113.86809 115.26368 116.57268 116.59802
           A3         113.13828 114.85248 116.66781 118.35044 118.41986
           A4         105.98345 106.13376 106.25352 106.28108 106.21526
           D1         -35.32963 -25.32961 -15.32959  -5.32960   4.67042
           D2        -171.73488-168.20166-167.38630-172.38509 173.27615
           D3        -136.18537-142.53252-151.69118-166.84129 168.41285
                          36        37
     Eigenvalues --    -0.23898  -0.23921
           R1           1.33818   1.34106
           R2           1.00795   1.01017
           R3           1.00451   1.00622
           R4           1.01962   1.01999
           A1         122.30209 120.83738
           A2         115.33780 113.96192
           A3         116.79805 115.05971
           A4         106.26077 106.14062
           D1          14.67041  24.67039
           D2         167.48459 168.29568
           D3         152.44434 143.25409
 Largest change from initial coordinates is atom    4       0.000 Angstoms.
 GradGradGradGradGradGradGradGradGradGradGradGradGradGradGradGradGradGrad

 Leave Link  103 at Sun Aug 11 00:19:19 2019, MaxMem=  1835008000 cpu:               0.2 elap:               0.0
 (Enter /opt/g16/l202.exe)
                          Input orientation:                          
 ---------------------------------------------------------------------
 Center     Atomic      Atomic             Coordinates (Angstroms)
 Number     Number       Type             X           Y           Z
 ---------------------------------------------------------------------
      1          7           0       -0.378559    0.205136    0.151962
      2          7           0        0.840806   -0.329583    0.312199
      3          1           0       -0.769257    0.336496   -0.770283
      4          1           0       -1.039850   -0.065677    0.860367
      5          1           0        1.346860   -0.146373   -0.554244
 ---------------------------------------------------------------------
                    Distance matrix (angstroms):
                    1          2          3          4          5
     1  N    0.000000
     2  N    1.341063   0.000000
     3  H    1.010166   2.051275   0.000000
     4  H    1.006222   1.976613   1.701170   0.000000
     5  H    1.897196   1.019991   2.181234   2.775611   0.000000
 Stoichiometry    H3N2(2)
 Framework group  C1[X(H3N2)]
 Deg. of freedom     9
 Full point group                 C1      NOp   1
 RotChk:  IX=0 Diff= 5.76D-16
 Largest Abelian subgroup         C1      NOp   1
 Largest concise Abelian subgroup C1      NOp   1
                         Standard orientation:                         
 ---------------------------------------------------------------------
 Center     Atomic      Atomic             Coordinates (Angstroms)
 Number     Number       Type             X           Y           Z
 ---------------------------------------------------------------------
      1          7           0        0.591772    0.024695   -0.069357
      2          7           0       -0.734520   -0.150956    0.023078
      3          1           0        1.018084    0.900324    0.198913
      4          1           0        1.129201   -0.796576    0.152379
      5          1           0       -1.148050    0.780081   -0.027341
 ---------------------------------------------------------------------
 Rotational constants (GHZ):         206.6522297          31.0579770          27.3643345
 Leave Link  202 at Sun Aug 11 00:19:19 2019, MaxMem=  1835008000 cpu:               0.0 elap:               0.0
 (Enter /opt/g16/l601.exe)
 Copying SCF densities to generalized density rwf, IOpCl= 1 IROHF=0.

 **********************************************************************

            Population analysis using the SCF Density.

 **********************************************************************

 Orbital symmetries:
 Alpha Orbitals:
       Occupied  (A) (A) (A) (A) (A) (A) (A) (A) (A)
       Virtual   (A) (A) (A) (A) (A) (A) (A) (A) (A) (A) (A) (A)
                 (A) (A) (A) (A) (A) (A) (A) (A) (A) (A) (A) (A)
                 (A) (A) (A) (A) (A) (A) (A) (A) (A) (A) (A) (A)
                 (A) (A) (A) (A) (A) (A) (A) (A) (A) (A) (A) (A)
                 (A) (A) (A) (A) (A) (A) (A) (A) (A) (A) (A) (A)
                 (A) (A) (A) (A) (A) (A) (A) (A) (A) (A) (A)
 Beta  Orbitals:
       Occupied  (A) (A) (A) (A) (A) (A) (A) (A)
       Virtual   (A) (A) (A) (A) (A) (A) (A) (A) (A) (A) (A) (A)
                 (A) (A) (A) (A) (A) (A) (A) (A) (A) (A) (A) (A)
                 (A) (A) (A) (A) (A) (A) (A) (A) (A) (A) (A) (A)
                 (A) (A) (A) (A) (A) (A) (A) (A) (A) (A) (A) (A)
                 (A) (A) (A) (A) (A) (A) (A) (A) (A) (A) (A) (A)
                 (A) (A) (A) (A) (A) (A) (A) (A) (A) (A) (A) (A)
 The electronic state is 2-A.
 Alpha  occ. eigenvalues --  -14.47854 -14.43958  -1.08830  -0.83642  -0.64464
 Alpha  occ. eigenvalues --   -0.56268  -0.48106  -0.38127  -0.26844
 Alpha virt. eigenvalues --    0.10263   0.14177   0.17697   0.31654   0.38103
 Alpha virt. eigenvalues --    0.40686   0.44094   0.44855   0.48624   0.49200
 Alpha virt. eigenvalues --    0.51501   0.54547   0.57934   0.60995   0.65821
 Alpha virt. eigenvalues --    0.92477   1.03043   1.10304   1.22302   1.30210
 Alpha virt. eigenvalues --    1.41869   1.43985   1.47369   1.61926   1.66359
 Alpha virt. eigenvalues --    1.74313   1.91465   1.93222   1.94509   2.05602
 Alpha virt. eigenvalues --    2.06473   2.10354   2.14422   2.17088   2.21789
 Alpha virt. eigenvalues --    2.36944   2.42611   2.57363   2.58646   2.67846
 Alpha virt. eigenvalues --    2.79851   3.09031   3.14874   3.22095   3.56842
 Alpha virt. eigenvalues --    3.68190   3.89103   3.95645   4.03381   4.12622
 Alpha virt. eigenvalues --    4.32943   4.47112   4.60589   4.64336   4.68241
 Alpha virt. eigenvalues --    4.71681   4.72663   4.73932   4.83210   4.90504
 Alpha virt. eigenvalues --    5.01397   5.03675   5.32756   5.35608   5.59027
 Alpha virt. eigenvalues --    5.67594   5.81602   5.94124   6.82761  31.67863
 Alpha virt. eigenvalues --   31.76636
  Beta  occ. eigenvalues --  -14.47281 -14.42600  -1.06575  -0.80529  -0.63688
  Beta  occ. eigenvalues --   -0.54977  -0.41537  -0.35925
  Beta virt. eigenvalues --    0.04182   0.10562   0.14504   0.17990   0.32666
  Beta virt. eigenvalues --    0.38176   0.41944   0.44493   0.45247   0.49538
  Beta virt. eigenvalues --    0.51803   0.52050   0.55399   0.58422   0.61771
  Beta virt. eigenvalues --    0.66560   0.93654   1.05330   1.12371   1.23343
  Beta virt. eigenvalues --    1.31001   1.43222   1.44859   1.48167   1.64218
  Beta virt. eigenvalues --    1.68036   1.74552   1.92308   1.94480   1.95294
  Beta virt. eigenvalues --    2.06384   2.07024   2.13072   2.15983   2.19310
  Beta virt. eigenvalues --    2.22600   2.39207   2.45062   2.58161   2.59280
  Beta virt. eigenvalues --    2.68608   2.80672   3.09883   3.16412   3.23394
  Beta virt. eigenvalues --    3.58739   3.70833   3.92214   3.97525   4.06094
  Beta virt. eigenvalues --    4.14151   4.36970   4.49640   4.63372   4.67109
  Beta virt. eigenvalues --    4.70591   4.74679   4.76171   4.77005   4.87304
  Beta virt. eigenvalues --    4.93540   5.03304   5.05473   5.34396   5.37055
  Beta virt. eigenvalues --    5.60279   5.70641   5.82683   5.94877   6.84358
  Beta virt. eigenvalues --   31.69579  31.77366
          Condensed to atoms (all electrons):
               1          2          3          4          5
     1  N    6.444267   0.173882   0.359770   0.381446  -0.031247
     2  N    0.173882   6.957515  -0.019671  -0.051373   0.296922
     3  H    0.359770  -0.019671   0.489128  -0.042220  -0.021529
     4  H    0.381446  -0.051373  -0.042220   0.448000   0.009827
     5  H   -0.031247   0.296922  -0.021529   0.009827   0.549476
          Atomic-Atomic Spin Densities.
               1          2          3          4          5
     1  N    0.481771  -0.215886  -0.002897  -0.001015   0.003165
     2  N   -0.215886   0.985218  -0.004980  -0.003162  -0.000738
     3  H   -0.002897  -0.004980   0.002428   0.003631   0.001100
     4  H   -0.001015  -0.003162   0.003631  -0.003714  -0.000373
     5  H    0.003165  -0.000738   0.001100  -0.000373  -0.023390
 Mulliken charges and spin densities:
               1          2
     1  N   -0.328117   0.265137
     2  N   -0.357276   0.760452
     3  H    0.234522  -0.000719
     4  H    0.254320  -0.004633
     5  H    0.196550  -0.020237
 Sum of Mulliken charges =  -0.00000   1.00000
 Mulliken charges and spin densities with hydrogens summed into heavy atoms:
               1          2
     1  N    0.160725   0.259785
     2  N   -0.160725   0.740215
 Electronic spatial extent (au):  <R**2>=             70.7387
 Charge=             -0.0000 electrons
 Dipole moment (field-independent basis, Debye):
    X=              2.0264    Y=              1.6715    Z=              0.6469  Tot=              2.7053
 Quadrupole moment (field-independent basis, Debye-Ang):
   XX=            -11.6191   YY=            -10.7825   ZZ=            -14.2607
   XY=             -2.2630   XZ=              0.9747   YZ=              0.1116
 Traceless Quadrupole moment (field-independent basis, Debye-Ang):
   XX=              0.6017   YY=              1.4382   ZZ=             -2.0400
   XY=             -2.2630   XZ=              0.9747   YZ=              0.1116
 Octapole moment (field-independent basis, Debye-Ang**2):
  XXX=              4.3394  YYY=              2.3796  ZZZ=              0.5670  XYY=              2.8437
  XXY=              2.4249  XXZ=              0.8988  XZZ=              0.4016  YZZ=              0.4538
  YYZ=              0.5456  XYZ=              0.0987
 Hexadecapole moment (field-independent basis, Debye-Ang**3):
 XXXX=            -51.8118 YYYY=            -17.1145 ZZZZ=            -14.4666 XXXY=             -4.5862
 XXXZ=              1.5637 YYYX=             -2.6430 YYYZ=              0.1688 ZZZX=              0.8478
 ZZZY=              0.1035 XXYY=             -9.7212 XXZZ=            -12.5872 YYZZ=             -5.6660
 XXYZ=              0.0385 YYXZ=              0.7543 ZZXY=             -0.6524
 N-N= 3.669133491588D+01 E-N=-3.337610894153D+02  KE= 1.107840076810D+02
                          Isotropic Fermi Contact Couplings
        Atom                 a.u.       MegaHertz       Gauss      10(-4) cm-1
     1  N(14)              0.07378      23.83774       8.50590       7.95142
     2  N(14)              0.08355      26.99665       9.63308       9.00511
     3  H(1)               0.00078       3.50820       1.25181       1.17021
     4  H(1)              -0.00224     -10.00464      -3.56990      -3.33719
     5  H(1)              -0.01054     -47.12950     -16.81698     -15.72071
 --------------------------------------------------------
       Center         ----  Spin Dipole Couplings  ----
                      3XX-RR        3YY-RR        3ZZ-RR
 --------------------------------------------------------
     1   Atom       -0.360330     -0.395422      0.755752
     2   Atom       -0.932857     -0.908721      1.841578
     3   Atom       -0.014636      0.024973     -0.010337
     4   Atom       -0.002476      0.013866     -0.011390
     5   Atom       -0.050389      0.065101     -0.014712
 --------------------------------------------------------
                        XY            XZ            YZ
 --------------------------------------------------------
     1   Atom        0.008900     -0.141280     -0.041276
     2   Atom       -0.019103      0.008596      0.106250
     3   Atom        0.036677      0.005006      0.008642
     4   Atom       -0.039685      0.005101     -0.008736
     5   Atom       -0.068421      0.002310     -0.000688
 --------------------------------------------------------


 ---------------------------------------------------------------------------------
              Anisotropic Spin Dipole Couplings in Principal Axis System
 ---------------------------------------------------------------------------------

       Atom             a.u.   MegaHertz   Gauss  10(-4) cm-1        Axes

              Baa    -0.3976   -15.336    -5.472    -5.116 -0.1887  0.9820  0.0120
     1 N(14)  Bbb    -0.3772   -14.549    -5.191    -4.853  0.9742  0.1856  0.1282
              Bcc     0.7749    29.885    10.664     9.969 -0.1237 -0.0359  0.9917
 
              Baa    -0.9447   -36.435   -13.001   -12.153  0.8541  0.5197 -0.0225
     2 N(14)  Bbb    -0.9010   -34.749   -12.399   -11.591 -0.5202  0.8535 -0.0314
              Bcc     1.8457    71.184    25.400    23.745  0.0028  0.0385  0.9993
 
              Baa    -0.0365   -19.482    -6.952    -6.499  0.8585 -0.5128  0.0051
     3 H(1)   Bbb    -0.0120    -6.419    -2.290    -2.141 -0.0901 -0.1410  0.9859
              Bcc     0.0485    25.901     9.242     8.640  0.5049  0.8469  0.1672
 
              Baa    -0.0349   -18.638    -6.651    -6.217  0.7678  0.6369  0.0700
     4 H(1)   Bbb    -0.0130    -6.918    -2.468    -2.307 -0.1596  0.0843  0.9836
              Bcc     0.0479    25.556     9.119     8.525 -0.6206  0.7663 -0.1663
 
              Baa    -0.0822   -43.871   -15.654   -14.634  0.9067  0.4210 -0.0267
     5 H(1)   Bbb    -0.0147    -7.836    -2.796    -2.614  0.0182  0.0242  0.9995
              Bcc     0.0969    51.707    18.450    17.248 -0.4214  0.9068 -0.0143
 

 ---------------------------------------------------------------------------------

 No NMR shielding tensors so no spin-rotation constants.
 Leave Link  601 at Sun Aug 11 00:19:20 2019, MaxMem=  1835008000 cpu:               4.9 elap:               0.7
 (Enter /opt/g16/l9999.exe)

 Test job not archived.
 1\1\GINC-NODE04\Scan\UwB97XD\def2TZVP\H3N2(2)\ALONGD\11-Aug-2019\0\\#P
  opt=(modredundant, calcfc, noeigentest, maxStep=5) scf=(tight, direct
 ) integral=(grid=ultrafine, Acc2E=12) guess=mix uwb97xd/def2tzvp scf=x
 qc iop(2/9=2000)\\name\\0,2\N,-0.3785585307,0.2051360707,0.151962251\N
 ,0.840805528,-0.3295825987,0.3121991807\H,-0.7692568201,0.336495513,-0
 .770282655\H,-1.0398496774,-0.0656766762,0.860366566\H,1.3468595002,-0
 .1463733088,-0.5542443427\\Version=ES64L-G16RevB.01\State=2-A\HF=-111.
 2392084,-111.2389062,-111.2378841,-111.236003,-111.2331853,-111.229429
 2,-111.2248431,-111.2197143,-111.2146251,-111.2104949,-111.2083757,-11
 1.2342348,-111.2367405,-111.2383902,-111.2391531,-111.239031,-111.2389
 939,-111.2391719,-111.2384687,-111.2368768,-111.2344257,-111.2311481,-
 111.2270877,-111.2223299,-111.2170666,-111.2116839,-111.2068227,-111.2
 032778,-111.201976,-111.2377876,-111.2388628,-111.239207,-111.2390097,
 -111.238583,-111.2385598,-111.2389839,-111.2392083\S2=0.754587,0.75456
 5,0.754527,0.754479,0.754429,0.754377,0.754322,0.754258,0.754196,0.754
 185,0.754228,0.754554,0.754587,0.754602,0.754594,0.754568,0.754565,0.7
 54594,0.754602,0.754589,0.754557,0.754509,0.754449,0.75438,0.75431,0.7
 54243,0.754218,0.754255,0.754276,0.754524,0.754563,0.754586,0.754586,0
 .754557,0.754552,0.754584,0.754588\S2-1=0.,0.,0.,0.,0.,0.,0.,0.,0.,0.,
 0.,0.,0.,0.,0.,0.,0.,0.,0.,0.,0.,0.,0.,0.,0.,0.,0.,0.,0.,0.,0.,0.,0.,0
 .,0.,0.,0.\S2A=0.750014,0.750014,0.750014,0.750014,0.750013,0.750013,0
 .750013,0.750014,0.750014,0.750013,0.750013,0.750014,0.750014,0.750014
 ,0.750014,0.750014,0.750014,0.750014,0.750014,0.750014,0.750014,0.7500
 14,0.750014,0.750014,0.750014,0.750014,0.750014,0.750013,0.750013,0.75
 0014,0.750014,0.750014,0.750014,0.750014,0.750014,0.750014,0.750014\RM
 SD=1.956e-09,5.442e-09,7.102e-09,6.577e-09,6.934e-09,7.598e-09,7.995e-
 09,3.079e-09,6.643e-09,5.310e-09,9.780e-09,5.807e-09,5.589e-09,8.644e-
 09,7.788e-09,4.177e-09,4.037e-09,4.871e-09,9.803e-09,2.490e-09,3.455e-
 09,3.721e-09,8.275e-09,4.822e-09,8.535e-09,7.130e-09,4.878e-09,5.824e-
 09,8.154e-09,5.855e-09,4.966e-09,4.258e-09,8.355e-09,5.028e-09,4.016e-
 09,6.077e-09,4.873e-09\PG=C01 [X(H3N2)]\\@


 THERE IS MORE TO LIFE THAN INCREASING ITS SPEED.

                                       -- GANDHI
 Job cpu time:       0 days  5 hours  5 minutes 55.5 seconds.
 Elapsed time:       0 days  0 hours 40 minutes 45.1 seconds.
 File lengths (MBytes):  RWF=     10 Int=      0 D2E=      0 Chk=      3 Scr=      1
 Normal termination of Gaussian 16 at Sun Aug 11 00:19:20 2019.
