 Entering Gaussian System, Link 0=g16
 Initial command:
 /opt/g16/l1.exe "/scratch/alongd/g16/a19039-8464/Gau-7479.inp" -scrdir="/scratch/alongd/g16/a19039-8464/"
 Entering Link 1 = /opt/g16/l1.exe PID=      7481.
  
 Copyright (c) 1988-2017, Gaussian, Inc.  All Rights Reserved.
  
 This is part of the Gaussian(R) 16 program.  It is based on
 the Gaussian(R) 09 system (copyright 2009, Gaussian, Inc.),
 the Gaussian(R) 03 system (copyright 2003, Gaussian, Inc.),
 the Gaussian(R) 98 system (copyright 1998, Gaussian, Inc.),
 the Gaussian(R) 94 system (copyright 1995, Gaussian, Inc.),
 the Gaussian 92(TM) system (copyright 1992, Gaussian, Inc.),
 the Gaussian 90(TM) system (copyright 1990, Gaussian, Inc.),
 the Gaussian 88(TM) system (copyright 1988, Gaussian, Inc.),
 the Gaussian 86(TM) system (copyright 1986, Carnegie Mellon
 University), and the Gaussian 82(TM) system (copyright 1983,
 Carnegie Mellon University). Gaussian is a federally registered
 trademark of Gaussian, Inc.
  
 This software contains proprietary and confidential information,
 including trade secrets, belonging to Gaussian, Inc.
  
 This software is provided under written license and may be
 used, copied, transmitted, or stored only in accord with that
 written license.
  
 The following legend is applicable only to US Government
 contracts under FAR:
  
                    RESTRICTED RIGHTS LEGEND
  
 Use, reproduction and disclosure by the US Government is
 subject to restrictions as set forth in subparagraphs (a)
 and (c) of the Commercial Computer Software - Restricted
 Rights clause in FAR 52.227-19.
  
 Gaussian, Inc.
 340 Quinnipiac St., Bldg. 40, Wallingford CT 06492
  
  
 ---------------------------------------------------------------
 Warning -- This program may not be used in any manner that
 competes with the business of Gaussian, Inc. or will provide
 assistance to any competitor of Gaussian, Inc.  The licensee
 of this program is prohibited from giving any competitor of
 Gaussian, Inc. access to this program.  By using this program,
 the user acknowledges that Gaussian, Inc. is engaged in the
 business of creating and licensing software in the field of
 computational chemistry and represents and warrants to the
 licensee that it is not a competitor of Gaussian, Inc. and that
 it will not use this program in any manner prohibited above.
 ---------------------------------------------------------------
  

 Cite this work as:
 Gaussian 16, Revision B.01,
 M. J. Frisch, G. W. Trucks, H. B. Schlegel, G. E. Scuseria, 
 M. A. Robb, J. R. Cheeseman, G. Scalmani, V. Barone, 
 G. A. Petersson, H. Nakatsuji, X. Li, M. Caricato, A. V. Marenich, 
 J. Bloino, B. G. Janesko, R. Gomperts, B. Mennucci, H. P. Hratchian, 
 J. V. Ortiz, A. F. Izmaylov, J. L. Sonnenberg, D. Williams-Young, 
 F. Ding, F. Lipparini, F. Egidi, J. Goings, B. Peng, A. Petrone, 
 T. Henderson, D. Ranasinghe, V. G. Zakrzewski, J. Gao, N. Rega, 
 G. Zheng, W. Liang, M. Hada, M. Ehara, K. Toyota, R. Fukuda, 
 J. Hasegawa, M. Ishida, T. Nakajima, Y. Honda, O. Kitao, H. Nakai, 
 T. Vreven, K. Throssell, J. A. Montgomery, Jr., J. E. Peralta, 
 F. Ogliaro, M. J. Bearpark, J. J. Heyd, E. N. Brothers, K. N. Kudin, 
 V. N. Staroverov, T. A. Keith, R. Kobayashi, J. Normand, 
 K. Raghavachari, A. P. Rendell, J. C. Burant, S. S. Iyengar, 
 J. Tomasi, M. Cossi, J. M. Millam, M. Klene, C. Adamo, R. Cammi, 
 J. W. Ochterski, R. L. Martin, K. Morokuma, O. Farkas, 
 J. B. Foresman, and D. J. Fox, Gaussian, Inc., Wallingford CT, 2016.
 
 ******************************************
 Gaussian 16:  ES64L-G16RevB.01 20-Dec-2017
                10-Aug-2019 
 ******************************************
 %chk=check.chk
 %mem=14000mb
 %NProcShared=8
 Will use up to    8 processors via shared memory.
 ----------------------------------------------------------------------
 #P scf=(tight, direct) integral=(grid=ultrafine, Acc2E=12) guess=mix u
 b3lyp/6-311+g(3df,2p) scf=xqc iop(2/9=2000)
 ----------------------------------------------------------------------
 1/38=1,172=1/1;
 2/9=2000,12=2,17=6,18=5,40=1/2;
 3/5=4,6=6,7=216,11=2,25=1,27=12,30=1,74=-5,75=-5,116=2/1,2,3;
 4/13=-1/1;
 5/5=2,8=3,13=1,32=2,38=5,87=12/2,8;
 6/7=2,8=2,9=2,10=2,28=1,87=12/1;
 99/5=1,9=1/99;
 Leave Link    1 at Sat Aug 10 23:37:49 2019, MaxMem=  1835008000 cpu:               0.7 elap:               0.1
 (Enter /opt/g16/l101.exe)
 ----
 name
 ----
 Symbolic Z-matrix:
 Charge =  0 Multiplicity = 2
 N                    -0.42467   0.01074   0.16767 
 N                     0.75507  -0.58161  -0.06802 
 H                    -0.56364   0.98903  -0.04229 
 H                    -1.22069  -0.57931  -0.00746 
 H                     1.45393   0.16115  -0.0499 
 
 ITRead=  0  0  0  0  0
 MicOpt= -1 -1 -1 -1 -1
 NAtoms=      5 NQM=        5 NQMF=       0 NMMI=      0 NMMIF=      0
                NMic=       0 NMicF=      0.
                    Isotopes and Nuclear Properties:
 (Nuclear quadrupole moments (NQMom) in fm**2, nuclear magnetic moments (NMagM)
  in nuclear magnetons)

  Atom         1           2           3           4           5
 IAtWgt=          14          14           1           1           1
 AtmWgt=  14.0030740  14.0030740   1.0078250   1.0078250   1.0078250
 NucSpn=           2           2           1           1           1
 AtZEff=  -0.0000000  -0.0000000  -0.0000000  -0.0000000  -0.0000000
 NQMom=    2.0440000   2.0440000   0.0000000   0.0000000   0.0000000
 NMagM=    0.4037610   0.4037610   2.7928460   2.7928460   2.7928460
 AtZNuc=   7.0000000   7.0000000   1.0000000   1.0000000   1.0000000
 Leave Link  101 at Sat Aug 10 23:37:49 2019, MaxMem=  1835008000 cpu:               2.4 elap:               0.3
 (Enter /opt/g16/l202.exe)
                          Input orientation:                          
 ---------------------------------------------------------------------
 Center     Atomic      Atomic             Coordinates (Angstroms)
 Number     Number       Type             X           Y           Z
 ---------------------------------------------------------------------
      1          7           0       -0.424673    0.010740    0.167669
      2          7           0        0.755071   -0.581611   -0.068021
      3          1           0       -0.563641    0.989029   -0.042288
      4          1           0       -1.220688   -0.579309   -0.007457
      5          1           0        1.453931    0.161150   -0.049902
 ---------------------------------------------------------------------
                    Distance matrix (angstroms):
                    1          2          3          4          5
     1  N    0.000000
     2  N    1.340979   0.000000
     3  H    1.010170   2.050993   0.000000
     4  H    1.006214   1.976688   1.700767   0.000000
     5  H    1.897133   1.020013   2.180834   2.775548   0.000000
 Stoichiometry    H3N2(2)
 Framework group  C1[X(H3N2)]
 Deg. of freedom     9
 Full point group                 C1      NOp   1
 Largest Abelian subgroup         C1      NOp   1
 Largest concise Abelian subgroup C1      NOp   1
                         Standard orientation:                         
 ---------------------------------------------------------------------
 Center     Atomic      Atomic             Coordinates (Angstroms)
 Number     Number       Type             X           Y           Z
 ---------------------------------------------------------------------
      1          7           0        0.591727    0.024667   -0.069531
      2          7           0       -0.734471   -0.150989    0.023050
      3          1           0        1.017766    0.900312    0.199130
      4          1           0        1.129430   -0.796162    0.153139
      5          1           0       -1.147989    0.780104   -0.026903
 ---------------------------------------------------------------------
 Rotational constants (GHZ):         206.6524372          31.0607393          27.3681286
 Leave Link  202 at Sat Aug 10 23:37:49 2019, MaxMem=  1835008000 cpu:               0.1 elap:               0.0
 (Enter /opt/g16/l301.exe)
 Standard basis: 6-311+G(3df,2p) (5D, 7F)
 Ernie: Thresh=  0.10000D-02 Tol=  0.10000D-05 Strict=F.
 There are   117 symmetry adapted cartesian basis functions of A   symmetry.
 There are   105 symmetry adapted basis functions of A   symmetry.
   105 basis functions,   149 primitive gaussians,   117 cartesian basis functions
     9 alpha electrons        8 beta electrons
       nuclear repulsion energy        36.6932781326 Hartrees.
 IExCor=  402 DFT=T Ex+Corr=B3LYP ExCW=0 ScaHFX=  0.200000
 ScaDFX=  0.800000  0.720000  1.000000  0.810000 ScalE2=  1.000000  1.000000
 IRadAn=      5 IRanWt=     -1 IRanGd=            0 ICorTp=0 IEmpDi=  4
 NAtoms=    5 NActive=    5 NUniq=    5 SFac= 1.00D+00 NAtFMM=   60 NAOKFM=F Big=F
 Integral buffers will be    131072 words long.
 Raffenetti 2 integral format.
 Two-electron integral symmetry is turned on.
 Leave Link  301 at Sat Aug 10 23:37:49 2019, MaxMem=  1835008000 cpu:               0.7 elap:               0.1
 (Enter /opt/g16/l302.exe)
 NPDir=0 NMtPBC=     1 NCelOv=     1 NCel=       1 NClECP=     1 NCelD=      1
         NCelK=      1 NCelE2=     1 NClLst=     1 CellRange=     0.0.
 One-electron integrals computed using PRISM.
 One-electron integral symmetry used in STVInt
 NBasis=   105 RedAO= T EigKep=  2.04D-04  NBF=   105
 NBsUse=   105 1.00D-06 EigRej= -1.00D+00 NBFU=   105
 Precomputing XC quadrature grid using
 IXCGrd= 4 IRadAn=           5 IRanWt=          -1 IRanGd=           0 AccXCQ= 1.00D-12.
 Generated NRdTot=       0 NPtTot=           0 NUsed=           0 NTot=          32
 NSgBfM=   117   117   117   117   117 MxSgAt=     5 MxSgA2=     5.
 Leave Link  302 at Sat Aug 10 23:37:50 2019, MaxMem=  1835008000 cpu:               2.6 elap:               0.3
 (Enter /opt/g16/l303.exe)
 DipDrv:  MaxL=1.
 Leave Link  303 at Sat Aug 10 23:37:50 2019, MaxMem=  1835008000 cpu:               0.5 elap:               0.1
 (Enter /opt/g16/l401.exe)
 ExpMin= 6.39D-02 ExpMax= 6.29D+03 ExpMxC= 9.49D+02 IAcc=3 IRadAn=         5 AccDes= 0.00D+00
 Harris functional with IExCor=  402 and IRadAn=       5 diagonalized for initial guess.
 HarFok:  IExCor=  402 AccDes= 0.00D+00 IRadAn=         5 IDoV= 1 UseB2=F ITyADJ=14
 ICtDFT=  3500011 ScaDFX=  1.000000  1.000000  1.000000  1.000000
 FoFCou: FMM=F IPFlag=           0 FMFlag=      100000 FMFlg1=           0
         NFxFlg=           0 DoJE=T BraDBF=F KetDBF=T FulRan=T
         wScrn=  0.000000 ICntrl=       500 IOpCl=  0 I1Cent=   200000004 NGrid=           0
         NMat0=    1 NMatS0=      1 NMatT0=    0 NMatD0=    1 NMtDS0=    0 NMtDT0=    0
 Petite list used in FoFCou.
 Harris En= -111.256131360777    
 JPrj=0 DoOrth=F DoCkMO=T.
 Mixing orbitals, IMix= 1 IMixAn=  0 NRI=1 NE=    9 Coef=  7.07106781D-01  7.07106781D-01
 Mixing orbitals, IMix= 1 IMixAn=  0 NRI=1 NE=    8 Coef= -7.07106781D-01  7.07106781D-01
 Initial guess <Sx>= 0.0000 <Sy>= 0.0000 <Sz>= 0.5000 <S**2>= 1.0000 S= 0.6180
 Leave Link  401 at Sat Aug 10 23:37:51 2019, MaxMem=  1835008000 cpu:               7.1 elap:               0.9
 (Enter /opt/g16/l502.exe)
 Keep R1 and R2 ints in memory in canonical form, NReq=38519883.
 FoFCou: FMM=F IPFlag=           0 FMFlag=           0 FMFlg1=           0
         NFxFlg=           0 DoJE=F BraDBF=F KetDBF=F FulRan=T
         wScrn=  0.000000 ICntrl=       600 IOpCl=  0 I1Cent=           0 NGrid=           0
         NMat0=    1 NMatS0=   5565 NMatT0=    0 NMatD0=    1 NMtDS0=    0 NMtDT0=    0
 Symmetry not used in FoFCou.
 Two-electron integral symmetry not used.
 UHF open shell SCF:
 Using DIIS extrapolation, IDIIS=  1040.
 NGot=  1835008000 LenX=  1804003745 LenY=  1803989615
 Requested convergence on RMS density matrix=1.00D-08 within  32 cycles.
 Requested convergence on MAX density matrix=1.00D-06.
 Requested convergence on             energy=1.00D-06.
 No special actions if energy rises.
 Integral accuracy reduced to 1.0D-05 until final iterations.

 Cycle   1  Pass 0  IDiag  1:
 E= -111.113339088638    
 DIIS: error= 1.67D-02 at cycle   1 NSaved=   1.
 NSaved= 1 IEnMin= 1 EnMin= -111.113339088638     IErMin= 1 ErrMin= 1.67D-02
 ErrMax= 1.67D-02  0.00D+00 EMaxC= 1.00D-01 BMatC= 1.52D-01 BMatP= 1.52D-01
 IDIUse=3 WtCom= 8.33D-01 WtEn= 1.67D-01
 Coeff-Com:  0.100D+01
 Coeff-En:   0.100D+01
 Coeff:      0.100D+01
 Gap=     0.059 Goal=   None    Shift=    0.000
 Gap=     0.091 Goal=   None    Shift=    0.000
 GapD=    0.059 DampG=0.500 DampE=0.500 DampFc=0.2500 IDamp=-1.
 Damping current iteration by 2.50D-01
 RMSDP=1.20D-02 MaxDP=4.60D-01              OVMax= 5.26D-01

 Cycle   2  Pass 0  IDiag  1:
 E= -111.142328824290     Delta-E=       -0.028989735651 Rises=F Damp=T
 DIIS: error= 1.21D-02 at cycle   2 NSaved=   2.
 NSaved= 2 IEnMin= 2 EnMin= -111.142328824290     IErMin= 2 ErrMin= 1.21D-02
 ErrMax= 1.21D-02  0.00D+00 EMaxC= 1.00D-01 BMatC= 6.78D-02 BMatP= 1.52D-01
 IDIUse=3 WtCom= 8.79D-01 WtEn= 1.21D-01
 Coeff-Com: -0.115D+01 0.215D+01
 Coeff-En:   0.000D+00 0.100D+01
 Coeff:     -0.101D+01 0.201D+01
 Gap=     0.155 Goal=   None    Shift=    0.000
 Gap=     0.166 Goal=   None    Shift=    0.000
 RMSDP=9.71D-03 MaxDP=4.02D-01 DE=-2.90D-02 OVMax= 1.48D-01

 Cycle   3  Pass 0  IDiag  1:
 E= -111.264142054616     Delta-E=       -0.121813230327 Rises=F Damp=F
 DIIS: error= 7.52D-03 at cycle   3 NSaved=   3.
 NSaved= 3 IEnMin= 3 EnMin= -111.264142054616     IErMin= 3 ErrMin= 7.52D-03
 ErrMax= 7.52D-03  0.00D+00 EMaxC= 1.00D-01 BMatC= 3.42D-02 BMatP= 6.78D-02
 IDIUse=3 WtCom= 9.25D-01 WtEn= 7.52D-02
 Coeff-Com: -0.773D+00 0.125D+01 0.527D+00
 Coeff-En:   0.000D+00 0.000D+00 0.100D+01
 Coeff:     -0.715D+00 0.115D+01 0.563D+00
 Gap=     0.186 Goal=   None    Shift=    0.000
 Gap=     0.207 Goal=   None    Shift=    0.000
 RMSDP=1.18D-03 MaxDP=3.75D-02 DE=-1.22D-01 OVMax= 7.84D-02

 Cycle   4  Pass 0  IDiag  1:
 E= -111.275137153445     Delta-E=       -0.010995098829 Rises=F Damp=F
 DIIS: error= 3.48D-03 at cycle   4 NSaved=   4.
 NSaved= 4 IEnMin= 4 EnMin= -111.275137153445     IErMin= 4 ErrMin= 3.48D-03
 ErrMax= 3.48D-03  0.00D+00 EMaxC= 1.00D-01 BMatC= 4.44D-03 BMatP= 3.42D-02
 IDIUse=3 WtCom= 9.65D-01 WtEn= 3.48D-02
 Coeff-Com:  0.207D+00-0.322D+00 0.786D-01 0.104D+01
 Coeff-En:   0.000D+00 0.000D+00 0.000D+00 0.100D+01
 Coeff:      0.200D+00-0.311D+00 0.759D-01 0.103D+01
 Gap=     0.198 Goal=   None    Shift=    0.000
 Gap=     0.231 Goal=   None    Shift=    0.000
 RMSDP=9.04D-04 MaxDP=2.43D-02 DE=-1.10D-02 OVMax= 7.77D-02

 Cycle   5  Pass 0  IDiag  1:
 E= -111.278440526101     Delta-E=       -0.003303372656 Rises=F Damp=F
 DIIS: error= 2.50D-03 at cycle   5 NSaved=   5.
 NSaved= 5 IEnMin= 5 EnMin= -111.278440526101     IErMin= 5 ErrMin= 2.50D-03
 ErrMax= 2.50D-03  0.00D+00 EMaxC= 1.00D-01 BMatC= 2.59D-03 BMatP= 4.44D-03
 IDIUse=3 WtCom= 9.75D-01 WtEn= 2.50D-02
 Coeff-Com:  0.185D+00-0.227D+00-0.129D+00 0.440D+00 0.730D+00
 Coeff-En:   0.000D+00 0.000D+00 0.000D+00 0.000D+00 0.100D+01
 Coeff:      0.181D+00-0.221D+00-0.126D+00 0.429D+00 0.737D+00
 Gap=     0.207 Goal=   None    Shift=    0.000
 Gap=     0.235 Goal=   None    Shift=    0.000
 RMSDP=3.72D-04 MaxDP=7.98D-03 DE=-3.30D-03 OVMax= 2.39D-02

 Cycle   6  Pass 0  IDiag  1:
 E= -111.279207968091     Delta-E=       -0.000767441990 Rises=F Damp=F
 DIIS: error= 1.14D-03 at cycle   6 NSaved=   6.
 NSaved= 6 IEnMin= 6 EnMin= -111.279207968091     IErMin= 6 ErrMin= 1.14D-03
 ErrMax= 1.14D-03  0.00D+00 EMaxC= 1.00D-01 BMatC= 4.89D-04 BMatP= 2.59D-03
 IDIUse=3 WtCom= 9.89D-01 WtEn= 1.14D-02
 Coeff-Com: -0.154D-01 0.333D-01-0.678D-01-0.137D+00 0.329D+00 0.857D+00
 Coeff-En:   0.000D+00 0.000D+00 0.000D+00 0.000D+00 0.000D+00 0.100D+01
 Coeff:     -0.152D-01 0.329D-01-0.670D-01-0.135D+00 0.326D+00 0.859D+00
 Gap=     0.206 Goal=   None    Shift=    0.000
 Gap=     0.236 Goal=   None    Shift=    0.000
 RMSDP=1.73D-04 MaxDP=3.34D-03 DE=-7.67D-04 OVMax= 1.95D-02

 Cycle   7  Pass 0  IDiag  1:
 E= -111.279432090776     Delta-E=       -0.000224122685 Rises=F Damp=F
 DIIS: error= 2.06D-04 at cycle   7 NSaved=   7.
 NSaved= 7 IEnMin= 7 EnMin= -111.279432090776     IErMin= 7 ErrMin= 2.06D-04
 ErrMax= 2.06D-04  0.00D+00 EMaxC= 1.00D-01 BMatC= 1.41D-05 BMatP= 4.89D-04
 IDIUse=3 WtCom= 9.98D-01 WtEn= 2.06D-03
 Coeff-Com: -0.238D-01 0.310D-01 0.383D-02-0.488D-01-0.343D-01 0.268D-01
 Coeff-Com:  0.105D+01
 Coeff-En:   0.000D+00 0.000D+00 0.000D+00 0.000D+00 0.000D+00 0.000D+00
 Coeff-En:   0.100D+01
 Coeff:     -0.238D-01 0.309D-01 0.383D-02-0.487D-01-0.342D-01 0.267D-01
 Coeff:      0.105D+01
 Gap=     0.206 Goal=   None    Shift=    0.000
 Gap=     0.236 Goal=   None    Shift=    0.000
 RMSDP=5.55D-05 MaxDP=1.31D-03 DE=-2.24D-04 OVMax= 6.49D-03

 Cycle   8  Pass 0  IDiag  1:
 E= -111.279444827814     Delta-E=       -0.000012737038 Rises=F Damp=F
 DIIS: error= 7.23D-05 at cycle   8 NSaved=   8.
 NSaved= 8 IEnMin= 8 EnMin= -111.279444827814     IErMin= 8 ErrMin= 7.23D-05
 ErrMax= 7.23D-05  0.00D+00 EMaxC= 1.00D-01 BMatC= 2.53D-06 BMatP= 1.41D-05
 IDIUse=1 WtCom= 1.00D+00 WtEn= 0.00D+00
 Coeff-Com: -0.186D-02 0.218D-02 0.586D-02 0.600D-02-0.478D-01-0.747D-01
 Coeff-Com:  0.181D+00 0.929D+00
 Coeff:     -0.186D-02 0.218D-02 0.586D-02 0.600D-02-0.478D-01-0.747D-01
 Coeff:      0.181D+00 0.929D+00
 Gap=     0.206 Goal=   None    Shift=    0.000
 Gap=     0.236 Goal=   None    Shift=    0.000
 RMSDP=1.37D-05 MaxDP=2.44D-04 DE=-1.27D-05 OVMax= 1.43D-03

 Cycle   9  Pass 0  IDiag  1:
 E= -111.279445948761     Delta-E=       -0.000001120947 Rises=F Damp=F
 DIIS: error= 2.01D-05 at cycle   9 NSaved=   9.
 NSaved= 9 IEnMin= 9 EnMin= -111.279445948761     IErMin= 9 ErrMin= 2.01D-05
 ErrMax= 2.01D-05  0.00D+00 EMaxC= 1.00D-01 BMatC= 1.23D-07 BMatP= 2.53D-06
 IDIUse=1 WtCom= 1.00D+00 WtEn= 0.00D+00
 Coeff-Com:  0.155D-02-0.201D-02 0.131D-02 0.295D-02-0.716D-02-0.112D-01
 Coeff-Com: -0.155D-01 0.142D+00 0.888D+00
 Coeff:      0.155D-02-0.201D-02 0.131D-02 0.295D-02-0.716D-02-0.112D-01
 Coeff:     -0.155D-01 0.142D+00 0.888D+00
 Gap=     0.206 Goal=   None    Shift=    0.000
 Gap=     0.236 Goal=   None    Shift=    0.000
 RMSDP=2.38D-06 MaxDP=4.30D-05 DE=-1.12D-06 OVMax= 2.28D-04

 Initial convergence to 1.0D-05 achieved.  Increase integral accuracy.
 Cycle  10  Pass 1  IDiag  1:
 E= -111.279449276875     Delta-E=       -0.000003328114 Rises=F Damp=F
 DIIS: error= 4.83D-06 at cycle   1 NSaved=   1.
 NSaved= 1 IEnMin= 1 EnMin= -111.279449276875     IErMin= 1 ErrMin= 4.83D-06
 ErrMax= 4.83D-06  0.00D+00 EMaxC= 1.00D-01 BMatC= 1.20D-08 BMatP= 1.20D-08
 IDIUse=1 WtCom= 1.00D+00 WtEn= 0.00D+00
 Coeff-Com:  0.100D+01
 Coeff:      0.100D+01
 Gap=     0.206 Goal=   None    Shift=    0.000
 Gap=     0.236 Goal=   None    Shift=    0.000
 RMSDP=2.38D-06 MaxDP=4.30D-05 DE=-3.33D-06 OVMax= 6.88D-05

 Cycle  11  Pass 1  IDiag  1:
 E= -111.279449282726     Delta-E=       -0.000000005851 Rises=F Damp=F
 DIIS: error= 2.65D-06 at cycle   2 NSaved=   2.
 NSaved= 2 IEnMin= 2 EnMin= -111.279449282726     IErMin= 2 ErrMin= 2.65D-06
 ErrMax= 2.65D-06  0.00D+00 EMaxC= 1.00D-01 BMatC= 4.27D-09 BMatP= 1.20D-08
 IDIUse=1 WtCom= 1.00D+00 WtEn= 0.00D+00
 Coeff-Com:  0.276D+00 0.724D+00
 Coeff:      0.276D+00 0.724D+00
 Gap=     0.206 Goal=   None    Shift=    0.000
 Gap=     0.236 Goal=   None    Shift=    0.000
 RMSDP=5.29D-07 MaxDP=1.42D-05 DE=-5.85D-09 OVMax= 2.57D-05

 Cycle  12  Pass 1  IDiag  1:
 E= -111.279449283645     Delta-E=       -0.000000000919 Rises=F Damp=F
 DIIS: error= 2.22D-06 at cycle   3 NSaved=   3.
 NSaved= 3 IEnMin= 3 EnMin= -111.279449283645     IErMin= 3 ErrMin= 2.22D-06
 ErrMax= 2.22D-06  0.00D+00 EMaxC= 1.00D-01 BMatC= 2.72D-09 BMatP= 4.27D-09
 IDIUse=1 WtCom= 1.00D+00 WtEn= 0.00D+00
 Coeff-Com: -0.117D+00 0.442D+00 0.675D+00
 Coeff:     -0.117D+00 0.442D+00 0.675D+00
 Gap=     0.206 Goal=   None    Shift=    0.000
 Gap=     0.236 Goal=   None    Shift=    0.000
 RMSDP=2.96D-07 MaxDP=6.28D-06 DE=-9.19D-10 OVMax= 2.42D-05

 Cycle  13  Pass 1  IDiag  1:
 E= -111.279449284383     Delta-E=       -0.000000000738 Rises=F Damp=F
 DIIS: error= 8.89D-07 at cycle   4 NSaved=   4.
 NSaved= 4 IEnMin= 4 EnMin= -111.279449284383     IErMin= 4 ErrMin= 8.89D-07
 ErrMax= 8.89D-07  0.00D+00 EMaxC= 1.00D-01 BMatC= 3.91D-10 BMatP= 2.72D-09
 IDIUse=1 WtCom= 1.00D+00 WtEn= 0.00D+00
 Coeff-Com: -0.115D+00 0.101D+00 0.344D+00 0.670D+00
 Coeff:     -0.115D+00 0.101D+00 0.344D+00 0.670D+00
 Gap=     0.206 Goal=   None    Shift=    0.000
 Gap=     0.236 Goal=   None    Shift=    0.000
 RMSDP=1.09D-07 MaxDP=2.35D-06 DE=-7.38D-10 OVMax= 8.51D-06

 Cycle  14  Pass 1  IDiag  1:
 E= -111.279449284494     Delta-E=       -0.000000000111 Rises=F Damp=F
 DIIS: error= 5.02D-07 at cycle   5 NSaved=   5.
 NSaved= 5 IEnMin= 5 EnMin= -111.279449284494     IErMin= 5 ErrMin= 5.02D-07
 ErrMax= 5.02D-07  0.00D+00 EMaxC= 1.00D-01 BMatC= 7.16D-11 BMatP= 3.91D-10
 IDIUse=1 WtCom= 1.00D+00 WtEn= 0.00D+00
 Coeff-Com: -0.430D-01-0.320D-01 0.528D-01 0.334D+00 0.688D+00
 Coeff:     -0.430D-01-0.320D-01 0.528D-01 0.334D+00 0.688D+00
 Gap=     0.206 Goal=   None    Shift=    0.000
 Gap=     0.236 Goal=   None    Shift=    0.000
 RMSDP=5.19D-08 MaxDP=1.03D-06 DE=-1.11D-10 OVMax= 5.15D-06

 Cycle  15  Pass 1  IDiag  1:
 E= -111.279449284517     Delta-E=       -0.000000000022 Rises=F Damp=F
 DIIS: error= 1.47D-07 at cycle   6 NSaved=   6.
 NSaved= 6 IEnMin= 6 EnMin= -111.279449284517     IErMin= 6 ErrMin= 1.47D-07
 ErrMax= 1.47D-07  0.00D+00 EMaxC= 1.00D-01 BMatC= 7.50D-12 BMatP= 7.16D-11
 IDIUse=1 WtCom= 1.00D+00 WtEn= 0.00D+00
 Coeff-Com:  0.105D-01-0.243D-01-0.459D-01-0.522D-01 0.233D+00 0.879D+00
 Coeff:      0.105D-01-0.243D-01-0.459D-01-0.522D-01 0.233D+00 0.879D+00
 Gap=     0.206 Goal=   None    Shift=    0.000
 Gap=     0.236 Goal=   None    Shift=    0.000
 RMSDP=2.75D-08 MaxDP=7.44D-07 DE=-2.22D-11 OVMax= 2.25D-06

 Cycle  16  Pass 1  IDiag  1:
 E= -111.279449284520     Delta-E=       -0.000000000003 Rises=F Damp=F
 DIIS: error= 2.27D-08 at cycle   7 NSaved=   7.
 NSaved= 7 IEnMin= 7 EnMin= -111.279449284520     IErMin= 7 ErrMin= 2.27D-08
 ErrMax= 2.27D-08  0.00D+00 EMaxC= 1.00D-01 BMatC= 3.20D-13 BMatP= 7.50D-12
 IDIUse=1 WtCom= 1.00D+00 WtEn= 0.00D+00
 Coeff-Com:  0.248D-02 0.242D-03-0.309D-02-0.322D-01-0.165D-01 0.800D-01
 Coeff-Com:  0.969D+00
 Coeff:      0.248D-02 0.242D-03-0.309D-02-0.322D-01-0.165D-01 0.800D-01
 Coeff:      0.969D+00
 Gap=     0.206 Goal=   None    Shift=    0.000
 Gap=     0.236 Goal=   None    Shift=    0.000
 RMSDP=4.45D-09 MaxDP=8.90D-08 DE=-3.24D-12 OVMax= 4.86D-07

 SCF Done:  E(UB3LYP) =  -111.279449285     A.U. after   16 cycles
            NFock= 16  Conv=0.45D-08     -V/T= 2.0036
 <Sx>= 0.0000 <Sy>= 0.0000 <Sz>= 0.5000 <S**2>= 0.7547 S= 0.5023
 <L.S>= 0.000000000000E+00
 KE= 1.108856615190D+02 PE=-3.337624588812D+02 EE= 7.490406994516D+01
 Annihilation of the first spin contaminant:
 S**2 before annihilation     0.7547,   after     0.7500
 Leave Link  502 at Sat Aug 10 23:38:03 2019, MaxMem=  1835008000 cpu:              87.9 elap:              12.9
 (Enter /opt/g16/l508.exe)
 QCSCF skips out because SCF is already converged.
 Leave Link  508 at Sat Aug 10 23:38:04 2019, MaxMem=  1835008000 cpu:               0.0 elap:               0.0
 (Enter /opt/g16/l601.exe)
 Copying SCF densities to generalized density rwf, IOpCl= 1 IROHF=0.

 **********************************************************************

            Population analysis using the SCF Density.

 **********************************************************************

 Orbital symmetries:
 Alpha Orbitals:
       Occupied  (A) (A) (A) (A) (A) (A) (A) (A) (A)
       Virtual   (A) (A) (A) (A) (A) (A) (A) (A) (A) (A) (A) (A)
                 (A) (A) (A) (A) (A) (A) (A) (A) (A) (A) (A) (A)
                 (A) (A) (A) (A) (A) (A) (A) (A) (A) (A) (A) (A)
                 (A) (A) (A) (A) (A) (A) (A) (A) (A) (A) (A) (A)
                 (A) (A) (A) (A) (A) (A) (A) (A) (A) (A) (A) (A)
                 (A) (A) (A) (A) (A) (A) (A) (A) (A) (A) (A) (A)
                 (A) (A) (A) (A) (A) (A) (A) (A) (A) (A) (A) (A)
                 (A) (A) (A) (A) (A) (A) (A) (A) (A) (A) (A) (A)
 Beta  Orbitals:
       Occupied  (A) (A) (A) (A) (A) (A) (A) (A)
       Virtual   (A) (A) (A) (A) (A) (A) (A) (A) (A) (A) (A) (A)
                 (A) (A) (A) (A) (A) (A) (A) (A) (A) (A) (A) (A)
                 (A) (A) (A) (A) (A) (A) (A) (A) (A) (A) (A) (A)
                 (A) (A) (A) (A) (A) (A) (A) (A) (A) (A) (A) (A)
                 (A) (A) (A) (A) (A) (A) (A) (A) (A) (A) (A) (A)
                 (A) (A) (A) (A) (A) (A) (A) (A) (A) (A) (A) (A)
                 (A) (A) (A) (A) (A) (A) (A) (A) (A) (A) (A) (A)
                 (A) (A) (A) (A) (A) (A) (A) (A) (A) (A) (A) (A)
                 (A)
 The electronic state is 2-A.
 Alpha  occ. eigenvalues --  -14.36662 -14.32697  -0.99433  -0.74639  -0.56236
 Alpha  occ. eigenvalues --   -0.48328  -0.40006  -0.30310  -0.19440
 Alpha virt. eigenvalues --    0.01179   0.04287   0.07002   0.09420   0.11434
 Alpha virt. eigenvalues --    0.13604   0.15260   0.15490   0.18096   0.19634
 Alpha virt. eigenvalues --    0.23939   0.28735   0.42738   0.45658   0.48175
 Alpha virt. eigenvalues --    0.52995   0.54162   0.57994   0.59711   0.60253
 Alpha virt. eigenvalues --    0.62727   0.63570   0.72937   0.76255   0.77693
 Alpha virt. eigenvalues --    0.80569   0.84753   0.86311   0.91347   0.94798
 Alpha virt. eigenvalues --    0.98960   1.04920   1.06909   1.11532   1.23585
 Alpha virt. eigenvalues --    1.31837   1.37871   1.40673   1.42631   1.44266
 Alpha virt. eigenvalues --    1.48327   1.81180   2.02634   2.12346   2.23254
 Alpha virt. eigenvalues --    2.24647   2.34203   2.38910   2.51302   2.64826
 Alpha virt. eigenvalues --    2.68429   2.75389   2.89717   3.02147   3.03838
 Alpha virt. eigenvalues --    3.30782   3.39083   3.44811   3.54952   3.57321
 Alpha virt. eigenvalues --    3.62590   3.67885   3.75590   3.81135   3.87526
 Alpha virt. eigenvalues --    3.90594   3.96119   3.98583   3.99336   4.13916
 Alpha virt. eigenvalues --    4.18734   4.33515   4.36200   4.45423   4.52791
 Alpha virt. eigenvalues --    4.57395   4.77128   4.98898   5.18682   5.54656
 Alpha virt. eigenvalues --    5.71706   5.95396   6.23100   6.50206  10.02330
 Alpha virt. eigenvalues --   10.08790  10.16118  10.26323  10.40441  10.54982
 Alpha virt. eigenvalues --   10.63390  10.74283  11.25712  11.41631  35.61891
 Alpha virt. eigenvalues --   36.00625
  Beta  occ. eigenvalues --  -14.35993 -14.31145  -0.97378  -0.71858  -0.55600
  Beta  occ. eigenvalues --   -0.47277  -0.33963  -0.28425
  Beta virt. eigenvalues --   -0.04793   0.01444   0.04617   0.07171   0.09963
  Beta virt. eigenvalues --    0.11505   0.13744   0.15492   0.16960   0.18258
  Beta virt. eigenvalues --    0.19879   0.24479   0.30138   0.43170   0.45978
  Beta virt. eigenvalues --    0.48492   0.53549   0.55207   0.58664   0.60883
  Beta virt. eigenvalues --    0.61147   0.63635   0.64648   0.74592   0.78550
  Beta virt. eigenvalues --    0.80487   0.81535   0.85150   0.86932   0.91700
  Beta virt. eigenvalues --    0.95215   1.00411   1.05640   1.07345   1.12379
  Beta virt. eigenvalues --    1.23831   1.32041   1.38236   1.41022   1.43045
  Beta virt. eigenvalues --    1.44764   1.48609   1.82903   2.04993   2.13370
  Beta virt. eigenvalues --    2.25973   2.26460   2.37163   2.41638   2.53461
  Beta virt. eigenvalues --    2.65495   2.71579   2.78007   2.90385   3.02719
  Beta virt. eigenvalues --    3.04353   3.31493   3.39691   3.45899   3.57276
  Beta virt. eigenvalues --    3.60143   3.65009   3.70134   3.77542   3.86914
  Beta virt. eigenvalues --    3.89776   3.93108   3.98048   4.00011   4.01792
  Beta virt. eigenvalues --    4.15309   4.19290   4.34368   4.36709   4.46484
  Beta virt. eigenvalues --    4.54478   4.58308   4.78036   4.99396   5.21442
  Beta virt. eigenvalues --    5.55061   5.72384   5.96227   6.23528   6.50964
  Beta virt. eigenvalues --   10.06797  10.12351  10.21633  10.31071  10.43533
  Beta virt. eigenvalues --   10.57728  10.66462  10.78690  11.26629  11.42622
  Beta virt. eigenvalues --   35.63094  36.01690
          Condensed to atoms (all electrons):
               1          2          3          4          5
     1  N    6.685367  -0.275912   0.365451   0.416613  -0.003922
     2  N   -0.275912   7.512483  -0.003613  -0.097236   0.211950
     3  H    0.365451  -0.003613   0.542402  -0.053723  -0.030818
     4  H    0.416613  -0.097236  -0.053723   0.525407   0.015163
     5  H   -0.003922   0.211950  -0.030818   0.015163   0.646436
          Atomic-Atomic Spin Densities.
               1          2          3          4          5
     1  N    0.479802  -0.218909   0.004685  -0.001762   0.002122
     2  N   -0.218909   0.980012  -0.007970  -0.003629   0.011136
     3  H    0.004685  -0.007970  -0.004562   0.004412   0.002579
     4  H   -0.001762  -0.003629   0.004412  -0.001866  -0.000530
     5  H    0.002122   0.011136   0.002579  -0.000530  -0.037654
 Mulliken charges and spin densities:
               1          2
     1  N   -0.187596   0.265939
     2  N   -0.347673   0.760639
     3  H    0.180301  -0.000857
     4  H    0.193776  -0.003375
     5  H    0.161192  -0.022346
 Sum of Mulliken charges =  -0.00000   1.00000
 Mulliken charges and spin densities with hydrogens summed into heavy atoms:
               1          2
     1  N    0.186481   0.261707
     2  N   -0.186481   0.738293
 Electronic spatial extent (au):  <R**2>=             71.5661
 Charge=             -0.0000 electrons
 Dipole moment (field-independent basis, Debye):
    X=              1.9914    Y=              1.5968    Z=              0.5981  Tot=              2.6217
 Quadrupole moment (field-independent basis, Debye-Ang):
   XX=            -11.9835   YY=            -11.1469   ZZ=            -14.6510
   XY=             -2.2386   XZ=              0.9418   YZ=              0.1044
 Traceless Quadrupole moment (field-independent basis, Debye-Ang):
   XX=              0.6103   YY=              1.4469   ZZ=             -2.0572
   XY=             -2.2386   XZ=              0.9418   YZ=              0.1044
 Octapole moment (field-independent basis, Debye-Ang**2):
  XXX=              4.2616  YYY=              2.3794  ZZZ=              0.4695  XYY=              2.8854
  XXY=              2.3960  XXZ=              0.8434  XZZ=              0.4429  YZZ=              0.4456
  YYZ=              0.5254  XYZ=              0.1049
 Hexadecapole moment (field-independent basis, Debye-Ang**3):
 XXXX=            -54.4909 YYYY=            -18.8352 ZZZZ=            -16.6026 XXXY=             -4.7933
 XXXZ=              1.5295 YYYX=             -2.8247 YYYZ=              0.1717 ZZZX=              0.9088
 ZZZY=              0.0998 XXYY=            -10.5573 XXZZ=            -13.6822 YYZZ=             -6.3308
 XXYZ=              0.0290 YYXZ=              0.7579 ZZXY=             -0.7429
 N-N= 3.669327813255D+01 E-N=-3.337624595298D+02  KE= 1.108856615190D+02
                          Isotropic Fermi Contact Couplings
        Atom                 a.u.       MegaHertz       Gauss      10(-4) cm-1
     1  N(14)              0.07047      22.76846       8.12435       7.59474
     2  N(14)              0.07315      23.63661       8.43413       7.88433
     3  H(1)               0.00127       5.66641       2.02192       1.89011
     4  H(1)              -0.00194      -8.66327      -3.09127      -2.88976
     5  H(1)              -0.00931     -41.59287     -14.84137     -13.87389
 --------------------------------------------------------
       Center         ----  Spin Dipole Couplings  ----
                      3XX-RR        3YY-RR        3ZZ-RR
 --------------------------------------------------------
     1   Atom       -0.366249     -0.410679      0.776928
     2   Atom       -0.935376     -0.915566      1.850941
     3   Atom       -0.015099      0.024276     -0.009177
     4   Atom       -0.003118      0.013269     -0.010151
     5   Atom       -0.049176      0.060734     -0.011558
 --------------------------------------------------------
                        XY            XZ            YZ
 --------------------------------------------------------
     1   Atom        0.009536     -0.148346     -0.042602
     2   Atom       -0.019709      0.004797      0.103121
     3   Atom        0.035848      0.005121      0.008461
     4   Atom       -0.039125      0.005080     -0.008546
     5   Atom       -0.065898      0.001990     -0.000287
 --------------------------------------------------------


 ---------------------------------------------------------------------------------
              Anisotropic Spin Dipole Couplings in Principal Axis System
 ---------------------------------------------------------------------------------

       Atom             a.u.   MegaHertz   Gauss  10(-4) cm-1        Axes

              Baa    -0.4128   -15.922    -5.681    -5.311 -0.1487  0.9887  0.0169
     1 N(14)  Bbb    -0.3846   -14.833    -5.293    -4.948  0.9807  0.1452  0.1306
              Bcc     0.7974    30.755    10.974    10.259 -0.1267 -0.0360  0.9913
 
              Baa    -0.9488   -36.594   -13.058   -12.206  0.8285  0.5595 -0.0220
     2 N(14)  Bbb    -0.9060   -34.941   -12.468   -11.655 -0.5599  0.8280 -0.0300
              Bcc     1.8548    71.535    25.525    23.861  0.0015  0.0372  0.9993
 
              Baa    -0.0363   -19.374    -6.913    -6.462  0.8609 -0.5088 -0.0038
     3 H(1)   Bbb    -0.0109    -5.821    -2.077    -1.942 -0.0846 -0.1506  0.9850
              Bcc     0.0472    25.195     8.990     8.404  0.5017  0.8476  0.1727
 
              Baa    -0.0350   -18.667    -6.661    -6.227  0.7700  0.6351  0.0610
     4 H(1)   Bbb    -0.0118    -6.277    -2.240    -2.094 -0.1550  0.0934  0.9835
              Bcc     0.0468    24.944     8.901     8.320 -0.6189  0.7667 -0.1704
 
              Baa    -0.0801   -42.721   -15.244   -14.250  0.9055  0.4237 -0.0245
     5 H(1)   Bbb    -0.0115    -6.151    -2.195    -2.052  0.0177  0.0201  0.9996
              Bcc     0.0916    48.872    17.439    16.302 -0.4241  0.9056 -0.0107
 

 ---------------------------------------------------------------------------------

 No NMR shielding tensors so no spin-rotation constants.
 Leave Link  601 at Sat Aug 10 23:38:04 2019, MaxMem=  1835008000 cpu:               4.7 elap:               0.6
 (Enter /opt/g16/l9999.exe)

 Test job not archived.
 1\1\GINC-NODE04\SP\UB3LYP\6-311+G(3df,2p)\H3N2(2)\ALONGD\10-Aug-2019\0
 \\#P scf=(tight, direct) integral=(grid=ultrafine, Acc2E=12) guess=mix
  ub3lyp/6-311+g(3df,2p) scf=xqc iop(2/9=2000)\\name\\0,2\N,0,-0.424673
 ,0.01074,0.167669\N,0,0.755071,-0.581611,-0.068021\H,0,-0.563641,0.989
 029,-0.042288\H,0,-1.220688,-0.579309,-0.007457\H,0,1.453931,0.16115,-
 0.049902\\Version=ES64L-G16RevB.01\State=2-A\HF=-111.2794493\S2=0.7546
 81\S2-1=0.\S2A=0.750014\RMSD=4.454e-09\Dipole=-0.552826,0.8591124,-0.1
 420601\Quadrupole=1.6502533,0.0114265,-1.6616797,1.4427247,0.3973623,-
 0.3684781\PG=C01 [X(H3N2)]\\@


 IT PROBABLY IS NOT POSSIBLE FOR A SCIENTIST TO INTERROGATE NATURE 
 FROM A WHOLLY DISINTERESTED VIEWPOINT.
 EVEN IF HE HAS NO PARTICULAR AXE TO GRIND, HE IS LIKELY TO HAVE 
 A DISTINCTIVE WAY OF VIEWING NATURE.

                                                   -- JOHN LOSEE
 Job cpu time:       0 days  0 hours  1 minutes 47.2 seconds.
 Elapsed time:       0 days  0 hours  0 minutes 15.4 seconds.
 File lengths (MBytes):  RWF=     10 Int=      0 D2E=      0 Chk=      2 Scr=      1
 Normal termination of Gaussian 16 at Sat Aug 10 23:38:04 2019.
