 Entering Gaussian System, Link 0=g09
 Initial command:
 /usr/local/g09/l1.exe "/gtmp/462264.zeus-master/Gau-285449.inp" -scrdir="/gtmp/462264.zeus-master/"
 Entering Link 1 = /usr/local/g09/l1.exe PID=    285450.
  
 Copyright (c) 1988,1990,1992,1993,1995,1998,2003,2009,2013,
            Gaussian, Inc.  All Rights Reserved.
  
 This is part of the Gaussian(R) 09 program.  It is based on
 the Gaussian(R) 03 system (copyright 2003, Gaussian, Inc.),
 the Gaussian(R) 98 system (copyright 1998, Gaussian, Inc.),
 the Gaussian(R) 94 system (copyright 1995, Gaussian, Inc.),
 the Gaussian 92(TM) system (copyright 1992, Gaussian, Inc.),
 the Gaussian 90(TM) system (copyright 1990, Gaussian, Inc.),
 the Gaussian 88(TM) system (copyright 1988, Gaussian, Inc.),
 the Gaussian 86(TM) system (copyright 1986, Carnegie Mellon
 University), and the Gaussian 82(TM) system (copyright 1983,
 Carnegie Mellon University). Gaussian is a federally registered
 trademark of Gaussian, Inc.
  
 This software contains proprietary and confidential information,
 including trade secrets, belonging to Gaussian, Inc.
  
 This software is provided under written license and may be
 used, copied, transmitted, or stored only in accord with that
 written license.
  
 The following legend is applicable only to US Government
 contracts under FAR:
  
                    RESTRICTED RIGHTS LEGEND
  
 Use, reproduction and disclosure by the US Government is
 subject to restrictions as set forth in subparagraphs (a)
 and (c) of the Commercial Computer Software - Restricted
 Rights clause in FAR 52.227-19.
  
 Gaussian, Inc.
 340 Quinnipiac St., Bldg. 40, Wallingford CT 06492
  
  
 ---------------------------------------------------------------
 Warning -- This program may not be used in any manner that
 competes with the business of Gaussian, Inc. or will provide
 assistance to any competitor of Gaussian, Inc.  The licensee
 of this program is prohibited from giving any competitor of
 Gaussian, Inc. access to this program.  By using this program,
 the user acknowledges that Gaussian, Inc. is engaged in the
 business of creating and licensing software in the field of
 computational chemistry and represents and warrants to the
 licensee that it is not a competitor of Gaussian, Inc. and that
 it will not use this program in any manner prohibited above.
 ---------------------------------------------------------------
  

 Cite this work as:
 Gaussian 09, Revision D.01,
 M. J. Frisch, G. W. Trucks, H. B. Schlegel, G. E. Scuseria, 
 M. A. Robb, J. R. Cheeseman, G. Scalmani, V. Barone, B. Mennucci, 
 G. A. Petersson, H. Nakatsuji, M. Caricato, X. Li, H. P. Hratchian, 
 A. F. Izmaylov, J. Bloino, G. Zheng, J. L. Sonnenberg, M. Hada, 
 M. Ehara, K. Toyota, R. Fukuda, J. Hasegawa, M. Ishida, T. Nakajima, 
 Y. Honda, O. Kitao, H. Nakai, T. Vreven, J. A. Montgomery, Jr., 
 J. E. Peralta, F. Ogliaro, M. Bearpark, J. J. Heyd, E. Brothers, 
 K. N. Kudin, V. N. Staroverov, T. Keith, R. Kobayashi, J. Normand, 
 K. Raghavachari, A. Rendell, J. C. Burant, S. S. Iyengar, J. Tomasi, 
 M. Cossi, N. Rega, J. M. Millam, M. Klene, J. E. Knox, J. B. Cross, 
 V. Bakken, C. Adamo, J. Jaramillo, R. Gomperts, R. E. Stratmann, 
 O. Yazyev, A. J. Austin, R. Cammi, C. Pomelli, J. W. Ochterski, 
 R. L. Martin, K. Morokuma, V. G. Zakrzewski, G. A. Voth, 
 P. Salvador, J. J. Dannenberg, S. Dapprich, A. D. Daniels, 
 O. Farkas, J. B. Foresman, J. V. Ortiz, J. Cioslowski, 
 and D. J. Fox, Gaussian, Inc., Wallingford CT, 2013.
 
 ******************************************
 Gaussian 09:  EM64L-G09RevD.01 24-Apr-2013
                26-May-2023 
 ******************************************
 %chk=check.chk
 %mem=15360mb
 %NProcShared=16
 Will use up to   16 processors via shared memory.
 ----------------------------------------------------------------------
 #P guess=read ub2plypd3/def2tzvp freq IOp(7/33=1) scf=(tight, direct) 
 integral=(grid=ultrafine, Acc2E=12) IOp(2/9=2000) scf=xqc
 ----------------------------------------------------------------------
 1/10=4,30=1,38=1/1,3;
 2/9=2000,12=2,17=6,18=5,40=1/2;
 3/5=44,7=101,11=2,16=1,25=1,30=1,71=2,74=-60,75=-5,116=2,140=1/1,2,3;
 4/5=1/1;
 5/5=2,8=3,13=1,32=2,38=6,87=12,98=1/2,8;
 8/6=3,8=1,10=1,19=11,30=-1,87=12/1;
 9/15=3,16=-3,87=12/6;
 11/6=1,8=1,15=11,17=12,24=-1,27=1,28=-2,29=300,32=6,42=3,87=12/1,2,10;
 10/6=2,21=1,87=12/2;
 8/6=4,8=1,10=1,19=11,30=-1,87=12/11,4;
 10/5=1,20=4,87=12/2;
 11/12=2,14=11,16=1,17=2,28=-2,42=3,87=12/2,10,12;
 6/7=2,8=2,9=2,10=2/1;
 7/8=1,10=1,12=2,25=1,33=1,44=2,87=12/1,2,3,16;
 1/10=4,30=1/3;
 99//99;
 Leave Link    1 at Fri May 26 08:40:36 2023, MaxMem=  2013265920 cpu:         1.5
 (Enter /usr/local/g09/l101.exe)
 ---
 TS0
 ---
 Symbolic Z-matrix:
 Charge =  0 Multiplicity = 2
 O                    -1.45119   0.51125   1.34433 
 N                    -0.4672    1.20198   1.31296 
 N                     0.62839   0.91911   0.75892 
 H                     1.31643   1.66105   0.86478 
 O                     1.68762  -1.91651  -1.04092 
 N                     0.57416  -1.51783  -0.42309 
 H                     0.67117  -0.51597   0.0346 
 H                    -0.2347   -1.43739  -1.05317 
 H                     0.29756  -2.13186   0.3542 
 
 NAtoms=      9 NQM=        9 NQMF=       0 NMMI=      0 NMMIF=      0
                NMic=       0 NMicF=      0.
                    Isotopes and Nuclear Properties:
 (Nuclear quadrupole moments (NQMom) in fm**2, nuclear magnetic moments (NMagM)
  in nuclear magnetons)

  Atom         1           2           3           4           5           6           7           8           9
 IAtWgt=          16          14          14           1          16          14           1           1           1
 AtmWgt=  15.9949146  14.0030740  14.0030740   1.0078250  15.9949146  14.0030740   1.0078250   1.0078250   1.0078250
 NucSpn=           0           2           2           1           0           2           1           1           1
 AtZEff=   0.0000000   0.0000000   0.0000000   0.0000000   0.0000000   0.0000000   0.0000000   0.0000000   0.0000000
 NQMom=    0.0000000   2.0440000   2.0440000   0.0000000   0.0000000   2.0440000   0.0000000   0.0000000   0.0000000
 NMagM=    0.0000000   0.4037610   0.4037610   2.7928460   0.0000000   0.4037610   2.7928460   2.7928460   2.7928460
 AtZNuc=   8.0000000   7.0000000   7.0000000   1.0000000   8.0000000   7.0000000   1.0000000   1.0000000   1.0000000
 Leave Link  101 at Fri May 26 08:40:36 2023, MaxMem=  2013265920 cpu:         2.1
 (Enter /usr/local/g09/l103.exe)

 GradGradGradGradGradGradGradGradGradGradGradGradGradGradGradGradGradGrad
 Berny optimization.
 Initialization pass.
 Trust Radius=3.00D-01 FncErr=1.00D-07 GrdErr=1.00D-07
 Number of steps in this run=      2 maximum allowed number of steps=      2.
 GradGradGradGradGradGradGradGradGradGradGradGradGradGradGradGradGradGrad

 Leave Link  103 at Fri May 26 08:40:36 2023, MaxMem=  2013265920 cpu:         0.3
 (Enter /usr/local/g09/l202.exe)
                          Input orientation:                          
 ---------------------------------------------------------------------
 Center     Atomic      Atomic             Coordinates (Angstroms)
 Number     Number       Type             X           Y           Z
 ---------------------------------------------------------------------
      1          8           0       -1.451194    0.511245    1.344333
      2          7           0       -0.467200    1.201981    1.312961
      3          7           0        0.628393    0.919113    0.758923
      4          1           0        1.316427    1.661050    0.864784
      5          8           0        1.687617   -1.916510   -1.040917
      6          7           0        0.574162   -1.517829   -0.423088
      7          1           0        0.671170   -0.515966    0.034595
      8          1           0       -0.234697   -1.437389   -1.053173
      9          1           0        0.297559   -2.131863    0.354203
 ---------------------------------------------------------------------
                    Distance matrix (angstroms):
                    1          2          3          4          5
     1  O    0.000000
     2  N    1.202641   0.000000
     3  N    2.198578   1.259880   0.000000
     4  H    3.035086   1.895503   1.017383   0.000000
     5  O    4.629854   4.461946   3.521667   4.070432   0.000000
     6  N    3.367935   3.390526   2.709018   3.509251   1.334332
     7  H    2.697222   2.425170   1.608084   2.417637   2.037502
     8  H    3.320403   3.552312   3.095435   3.960413   1.981161
     9  H    3.320318   3.552265   3.095433   3.960426   1.981161
                    6          7          8          9
     6  N    0.000000
     7  H    1.105719   0.000000
     8  H    1.028460   1.689040   0.000000
     9  H    1.028459   1.689040   1.657196   0.000000
 Stoichiometry    H4N3O2(2)
 Framework group  C1[X(H4N3O2)]
 Deg. of freedom    21
 Full point group                 C1      NOp   1
 Largest Abelian subgroup         C1      NOp   1
 Largest concise Abelian subgroup C1      NOp   1
                         Standard orientation:                         
 ---------------------------------------------------------------------
 Center     Atomic      Atomic             Coordinates (Angstroms)
 Number     Number       Type             X           Y           Z
 ---------------------------------------------------------------------
      1          8           0        1.862213   -0.937079   -0.000015
      2          7           0        1.841589    0.265385   -0.000010
      3          7           0        0.815395    0.996290    0.000017
      4          1           0        1.047943    1.986739    0.000008
      5          8           0       -2.620148    0.222222   -0.000038
      6          7           0       -1.471233   -0.456332    0.000031
      7          1           0       -0.582748    0.201854    0.000023
      8          1           0       -1.351010   -1.053528    0.828664
      9          1           0       -1.350962   -1.053615   -0.828532
 ---------------------------------------------------------------------
 Rotational constants (GHZ):     12.5798139      1.9517353      1.7053778
 Leave Link  202 at Fri May 26 08:40:36 2023, MaxMem=  2013265920 cpu:         0.0
 (Enter /usr/local/g09/l301.exe)
 Standard basis: def2TZVP (5D, 7F)
 Ernie: Thresh=  0.10000D-02 Tol=  0.10000D-05 Strict=F.
 There are   204 symmetry adapted cartesian basis functions of A   symmetry.
 There are   179 symmetry adapted basis functions of A   symmetry.
   179 basis functions,   287 primitive gaussians,   204 cartesian basis functions
    21 alpha electrons       20 beta electrons
       nuclear repulsion energy       169.1506214577 Hartrees.
 IExCor=  419 DFT=T Ex+Corr=B2PLYPD3 ExCW=0 ScaHFX=  0.530000
 ScaDFX=  0.470000  0.470000  0.730000  0.730000 ScalE2=  0.270000  0.270000
 IRadAn=      5 IRanWt=     -1 IRanGd=            0 ICorTp=0 IEmpDi=141
 NAtoms=    9 NActive=    9 NUniq=    9 SFac= 1.00D+00 NAtFMM=   60 NAOKFM=F Big=F
 Integral buffers will be    131072 words long.
 Raffenetti 2 integral format.
 Two-electron integral symmetry is turned on.
 R6Disp:  Grimme-D3(BJ) Dispersion energy=       -0.0035011321 Hartrees.
 Nuclear repulsion after empirical dispersion term =      169.1471203256 Hartrees.
 Leave Link  301 at Fri May 26 08:40:36 2023, MaxMem=  2013265920 cpu:         1.1
 (Enter /usr/local/g09/l302.exe)
 NPDir=0 NMtPBC=     1 NCelOv=     1 NCel=       1 NClECP=     1 NCelD=      1
         NCelK=      1 NCelE2=     1 NClLst=     1 CellRange=     0.0.
 One-electron integrals computed using PRISM.
   1 Symmetry operations used in ECPInt.
 ECPInt:  NShTT=    2556 NPrTT=    7872 LenC2=    2483 LenP2D=    6208.
 LDataN:  DoStor=T MaxTD1= 6 Len=  172
 NBasis=   179 RedAO= T EigKep=  6.24D-04  NBF=   179
 NBsUse=   179 1.00D-06 EigRej= -1.00D+00 NBFU=   179
 Precomputing XC quadrature grid using
 IXCGrd= 4 IRadAn=           5 IRanWt=          -1 IRanGd=           0 AccXCQ= 0.00D+00.
 Generated NRdTot=       0 NPtTot=           0 NUsed=           0 NTot=          32
 NSgBfM=   203   203   203   203   203 MxSgAt=     9 MxSgA2=     9.
 Leave Link  302 at Fri May 26 08:40:37 2023, MaxMem=  2013265920 cpu:         3.9
 (Enter /usr/local/g09/l303.exe)
 DipDrv:  MaxL=1.
 Leave Link  303 at Fri May 26 08:40:37 2023, MaxMem=  2013265920 cpu:         1.0
 (Enter /usr/local/g09/l401.exe)
 Initial guess from the checkpoint file:  "check.chk"
 B after Tr=     0.000000    0.000000    0.000000
         Rot=    1.000000    0.000000    0.000000    0.000000 Ang=   0.00 deg.
 Guess basis will be translated and rotated to current coordinates.
 JPrj=2 DoOrth=T DoCkMO=T.
 Initial guess <Sx>= 0.0000 <Sy>= 0.0000 <Sz>= 0.5000 <S**2>= 0.7716 S= 0.5107
 Leave Link  401 at Fri May 26 08:40:37 2023, MaxMem=  2013265920 cpu:         4.0
 (Enter /usr/local/g09/l502.exe)
 UHF open shell SCF:
 Using DIIS extrapolation, IDIIS=  1040.
 Integral symmetry usage will be decided dynamically.
 Keep R1 and R2 ints in memory in canonical form, NReq=263991216.
 IVT=      135546 IEndB=      135546 NGot=  2013265920 MDV=  1753582165
 LenX=  1753582165 LenY=  1753540108
 Requested convergence on RMS density matrix=1.00D-08 within  64 cycles.
 Requested convergence on MAX density matrix=1.00D-06.
 Requested convergence on             energy=1.00D-06.
 No special actions if energy rises.
 FoFCou: FMM=F IPFlag=           0 FMFlag=           0 FMFlg1=           0
         NFxFlg=           0 DoJE=F BraDBF=F KetDBF=F FulRan=T
         wScrn=  0.000000 ICntrl=     600 IOpCl=  0 I1Cent=           0 NGrid=           0
         NMat0=    1 NMatS0=  16110 NMatT0=    0 NMatD0=    1 NMtDS0=    0 NMtDT0=    0
 Symmetry not used in FoFCou.

 Cycle   1  Pass 1  IDiag  1:
 E= -316.439293078835    
 DIIS: error= 3.88D-08 at cycle   1 NSaved=   1.
 NSaved= 1 IEnMin= 1 EnMin= -316.439293078835     IErMin= 1 ErrMin= 3.88D-08
 ErrMax= 3.88D-08  0.00D+00 EMaxC= 1.00D-01 BMatC= 2.38D-12 BMatP= 2.38D-12
 IDIUse=1 WtCom= 1.00D+00 WtEn= 0.00D+00
 Coeff-Com:  0.100D+01
 Coeff:      0.100D+01
 Gap=     0.228 Goal=   None    Shift=    0.000
 Gap=     0.129 Goal=   None    Shift=    0.000
 RMSDP=4.58D-09 MaxDP=7.34D-08              OVMax= 2.20D-07

 SCF Done:  E(UB2PLYPD3) =  -316.439293079     A.U. after    1 cycles
            NFock=  1  Conv=0.46D-08     -V/T= 2.0028
 <Sx>= 0.0000 <Sy>= 0.0000 <Sz>= 0.5000 <S**2>= 0.7716 S= 0.5107
 <L.S>= 0.000000000000E+00
 KE= 3.155635601190D+02 PE=-1.082956381508D+03 EE= 2.818064079848D+02
 Annihilation of the first spin contaminant:
 S**2 before annihilation     0.7716,   after     0.7503
 Leave Link  502 at Fri May 26 08:40:40 2023, MaxMem=  2013265920 cpu:        42.1
 (Enter /usr/local/g09/l508.exe)
 QCSCF skips out because SCF is already converged.
 Leave Link  508 at Fri May 26 08:40:40 2023, MaxMem=  2013265920 cpu:         0.0
 (Enter /usr/local/g09/l801.exe)
 DoSCS=T DFT=T ScalE2(SS,OS)=  0.270000  0.270000
 ExpMin= 1.03D-01 ExpMax= 2.70D+04 ExpMxC= 9.22D+02 IAcc=3 IRadAn=         5 AccDes= 0.00D+00
 HarFok:  IExCor=  205 AccDes= 0.00D+00 IRadAn=         5 IDoV=-2 UseB2=F ITyADJ=14
 ICtDFT= 12500011 ScaDFX=  1.000000  1.000000  1.000000  1.000000
 Largest valence mixing into a core orbital is  9.11D-05
 Largest core mixing into a valence orbital is  1.81D-05
 Largest valence mixing into a core orbital is  1.02D-04
 Largest core mixing into a valence orbital is  1.76D-05
 Range of M.O.s used for correlation:     6   179
 NBasis=   179 NAE=    21 NBE=    20 NFC=     5 NFV=     0
 NROrb=    174 NOA=    16 NOB=    15 NVA=   158 NVB=   159

 **** Warning!!: The largest alpha MO coefficient is  0.10412347D+02


 **** Warning!!: The largest beta MO coefficient is  0.10434310D+02

 Leave Link  801 at Fri May 26 08:40:40 2023, MaxMem=  2013265920 cpu:         1.4
 (Enter /usr/local/g09/l906.exe)
 DoSCS=T DFT=T ScalE2(SS,OS)=  0.270000  0.270000
 Frozen-core derivative calculation, NFC=   5 NFV=   0.
 FulOut=F Deriv=T AODrv=T NAtomX=     9
   MMem=           0  MDisk=          16 MDiskD=          16
  W3Min=     1533672 MinDsk=     2405690 NBas6D=         204
 NBas2D=       21342    NTT=       20910    LW2=     7400000
    MDV=  2012745014 MDiskM=       49282 NBas2p=       20570
 Disk-based method using ON**2 memory for 16 occupieds at a time.
 Permanent disk used for amplitudes=    15542460 words.
 Estimated scratch disk usage=   239841810 words.
 IMap=   1   2   3   4   5   6   7   8   9  10  11  12  13  14  15  16  17  18  19  20
 IMap=  21
 Actual    scratch disk usage=   232078866 words.
 JobTyp=2 Pass  1:  I=   6 to  21 NPSUse= 16 ParTrn=T ParDer=T DoDerP=T.
 (rs|ai) integrals will be sorted in core.
 IMap=   1   2   3   4   5   6   7   8   9  10  11  12  13  14  15  16  17  18  19  20
 Actual    scratch disk usage=   232078866 words.
 JobTyp=3 Pass  1:  I=   6 to  20 NPSUse= 16 ParTrn=T ParDer=T DoDerP=T.
 (rs|ai) integrals will be sorted in core.
 Spin components of T(2) and E(2):
     alpha-alpha T2 =       0.6082814521D-01 E2=     -0.4701525990D-01
     alpha-beta  T2 =       0.3749231641D+00 E2=     -0.2703928740D+00
     beta-beta   T2 =       0.8728318330D-01 E2=     -0.5142404612D-01
 The integrals were generated   2 times.
 E2(B2PLYPD3) =    -0.3688321800D+00 E(B2PLYPD3) =    -0.31680812525887D+03
 Leave Link  906 at Fri May 26 08:44:22 2023, MaxMem=  2013265920 cpu:      3538.8
 (Enter /usr/local/g09/l1101.exe)
 Using compressed Sx but separate Hx and Fx, NAtomX=     9.
 Will process     10 centers per pass.
   1 Symmetry operations used in ECPInt.
 ECPInt:  NShTT=    2556 NPrTT=    7872 LenC2=    2483 LenP2D=    6208.
 LDataN:  DoStor=T MaxTD1= 7 Len=  274
 R6Disp: Adding Grimme-D3(BJ) dispersion energy 1st derivatives to the gradient.
 Leave Link 1101 at Fri May 26 08:44:23 2023, MaxMem=  2013265920 cpu:         6.6
 (Enter /usr/local/g09/l1102.exe)
 Leave Link 1102 at Fri May 26 08:44:23 2023, MaxMem=  2013265920 cpu:         0.5
 (Enter /usr/local/g09/l1110.exe)
 Forming Gx(P) for the SCF density, NAtomX=     9.
 Integral derivatives from FoFJK, PRISM(SPDF).
 Do as many integral derivatives as possible in FoFJK.
 G2DrvN: MDV=    2013265744.
 G2DrvN: will do    10 centers at a time, making    1 passes.
 Calling FoFCou, ICntrl=  3107 FMM=F I1Cent=   0 AccDes= 1.00D-12.
 FoFJK:  IHMeth= 1 ICntrl=    3107 DoSepK=F KAlg= 0 I1Cent=   0 FoldK=F
 IRaf=         0 NMat=   1 IRICut=       1 DoRegI=T DoRafI=F ISym2E= 0.
 FoFCou: FMM=F IPFlag=           0 FMFlag=      100000 FMFlg1=           0
         NFxFlg=           0 DoJE=F BraDBF=F KetDBF=F FulRan=T
         wScrn=  0.000000 ICntrl=    3107 IOpCl=  1 I1Cent=           0 NGrid=           0
         NMat0=    1 NMatS0=      1 NMatT0=    0 NMatD0=    1 NMtDS0=    0 NMtDT0=    0
 Symmetry not used in FoFCou.
 End of G2Drv F.D. properties file   721 does not exist.
 End of G2Drv F.D. properties file   722 does not exist.
 End of G2Drv F.D. properties file   788 does not exist.
 Leave Link 1110 at Fri May 26 08:44:46 2023, MaxMem=  2013265920 cpu:       374.0
 (Enter /usr/local/g09/l1002.exe)
 Minotr:  UHF open shell wavefunction.
          IDoAtm=111111111
          Frozen-core window.
          Direct CPHF calculation.
          Differentiating once with respect to electric field.
                with respect to dipole field.
          Differentiating once with respect to nuclear coordinates.
          Requested convergence is 1.0D-08 RMS, and 1.0D-07 maximum.
          Secondary convergence is 1.0D-12 RMS, and 1.0D-12 maximum.
          NewPWx=T KeepS1=T KeepF1=T KeepIn=T MapXYZ=F SortEE=F KeepMc=T.
          MDV=    2013265478 using IRadAn=       1.
 Generate precomputed XC quadrature information.
 Keep R1 and R2 ints in memory in canonical form, NReq=263860310.
 FoFCou: FMM=F IPFlag=           0 FMFlag=           0 FMFlg1=           0
         NFxFlg=           0 DoJE=F BraDBF=F KetDBF=F FulRan=T
         wScrn=  0.000000 ICntrl=     600 IOpCl=  0 I1Cent=           0 NGrid=           0
         NMat0=    1 NMatS0=  16110 NMatT0=    0 NMatD0=    1 NMtDS0=    0 NMtDT0=    0
 Symmetry not used in FoFCou.
          Solving linear equations simultaneously, MaxMat=       0.
          There are    30 degrees of freedom in the 1st order CPHF.  IDoFFX=6 NUNeed=    30.
     27 vectors produced by pass  0 Test12= 2.17D-14 3.33D-09 XBig12= 2.65D+02 1.51D+01.
 AX will form    27 AO Fock derivatives at one time.
     27 vectors produced by pass  1 Test12= 2.17D-14 3.33D-09 XBig12= 3.49D+01 1.33D+00.
     27 vectors produced by pass  2 Test12= 2.17D-14 3.33D-09 XBig12= 1.50D+00 3.56D-01.
     27 vectors produced by pass  3 Test12= 2.17D-14 3.33D-09 XBig12= 3.68D-02 5.44D-02.
     27 vectors produced by pass  4 Test12= 2.17D-14 3.33D-09 XBig12= 1.19D-03 8.10D-03.
     27 vectors produced by pass  5 Test12= 2.17D-14 3.33D-09 XBig12= 1.74D-05 6.53D-04.
     27 vectors produced by pass  6 Test12= 2.17D-14 3.33D-09 XBig12= 1.56D-07 5.48D-05.
     20 vectors produced by pass  7 Test12= 2.17D-14 3.33D-09 XBig12= 1.24D-09 4.21D-06.
      6 vectors produced by pass  8 Test12= 2.17D-14 3.33D-09 XBig12= 9.24D-12 3.60D-07.
      3 vectors produced by pass  9 Test12= 2.17D-14 3.33D-09 XBig12= 7.84D-14 3.80D-08.
      2 vectors produced by pass 10 Test12= 2.17D-14 3.33D-09 XBig12= 7.39D-16 5.37D-09.
 InvSVY:  IOpt=1 It=  1 EMax= 4.64D-15
 Solved reduced A of dimension   220 with    30 vectors.
 FullF1:  Do perturbations    1 to    30.
 Saving first derivative matrices.
 End of Minotr F.D. properties file   721 does not exist.
 End of Minotr F.D. properties file   722 does not exist.
 End of Minotr F.D. properties file   788 does not exist.
 Leave Link 1002 at Fri May 26 08:45:30 2023, MaxMem=  2013265920 cpu:       699.8
 (Enter /usr/local/g09/l811.exe)
 MDV=  2013265920.
 DoSCS=T DFT=T ScalE2(SS,OS)=  0.270000  0.270000
 Form MO integral derivatives with frozen-active canonical formalism.
 MOERI=1 MOERIx=1 NAtoms=     9 NAtomX=     9.
 Discarding MO integrals.
 MO basis two electron integral derivatives will not be stored on disk.
 IAlg= 3 DoFC=T DoPWx=T Debug=F.
 Frozen-core window:  NFC=   5 NFV=   0.
 Reordered first order wavefunction length =     62744913
 In DefCFB: NBatch=  1 ICI= 21 ICA=159 LFMax= 53
            Large arrays: LIAPS=   949123872 LIARS=   343302624 words.
 In StABat: MaxSiz= 36 MinSiz= 24 NAtomB=  6
 DoIAMN: NPSUse= 16.
 In DefCFB: NBatch=  1 ICI= 21 ICA=159 LFMax= 53
            Large arrays: LIAPS=   949123872 LIARS=   343302624 words.
 In StABat: MaxSiz= 36 MinSiz= 24 NAtomB=  6
 Leave Link  811 at Fri May 26 08:52:15 2023, MaxMem=  2013265920 cpu:      6458.1
 (Enter /usr/local/g09/l804.exe)
 Frozen-core window:  NFC=   5 NFV=   0.
 Open-shell transformation, MDV=  2013265920 ITran=4 ISComp=1.
 Semi-Direct transformation.
 ModeAB=           4 MOrb=            21 LenV=    2012035864
 LASXX=     55485843 LTotXX=    55485843 LenRXX=   112660233
 LTotAB=    57174390 MaxLAS=    75364191 LenRXY=           0
 NonZer=   168146076 LenScr=   253208576 LnRSAI=    75364191
 LnScr1=   113815552 LExtra=           0 Total=    555048552
 MaxDsk=          -1 SrtSym=           T ITran=            4
 DoSDTr:  NPSUse= 16
 JobTyp=1 Pass  1:  I=   1 to  21.
 (rs|ai) integrals will be sorted in core.
 Complete sort for first half transformation.
 First half transformation complete.
 Begin second half transformation for I=  10.
 Begin second half transformation for I=  20.
 Complete sort for second half transformation.
 Second half transformation complete.
 ModeAB=           4 MOrb=            20 LenV=    2012035864
 LASXX=     53065315 LTotXX=    53065315 LenRXX=    95647105
 LTotAB=    42581790 MaxLAS=    71775420 LenRXY=           0
 NonZer=   148712420 LenScr=   223943680 LnRSAI=    71775420
 LnScr1=   108432384 LExtra=           0 Total=    499798589
 MaxDsk=          -1 SrtSym=           T ITran=            4
 DoSDTr:  NPSUse= 16
 JobTyp=2 Pass  1:  I=   1 to  20.
 (rs|ai) integrals will be sorted in core.
 Complete sort for first half transformation.
 First half transformation complete.
 Begin second half transformation for I=  10.
 Begin second half transformation for I=  20.
 Complete sort for second half transformation.
 Second half transformation complete.
 SymMOI:  orbitals are not symmetric.
 DoSCS=T DFT=T ScalE2(SS,OS)=  0.270000  0.270000
 Spin components of T(2) and E(2):
     alpha-alpha T2 =       0.6082814521D-01 E2=     -0.4701525990D-01
     alpha-beta  T2 =       0.3749231641D+00 E2=     -0.2703928740D+00
     beta-beta   T2 =       0.8728318330D-01 E2=     -0.5142404612D-01
 E2(B2PLYPD3) =    -0.3688321800D+00 E(B2PLYPD3) =    -0.31680812525887D+03
 Leave Link  804 at Fri May 26 08:53:13 2023, MaxMem=  2013265920 cpu:       909.9
 (Enter /usr/local/g09/l1002.exe)
 Minotr:  UHF open shell wavefunction.
          Computing MP2/KS-MP2 derivatives.
          Using Z-Vector for PSCF gradient.
          Skipping F1 and S1 gradient terms here.
          IDoAtm=111111111
          Frozen-core window.
          Direct CPHF calculation.
          Differentiating once with respect to electric field.
                with respect to dipole field.
          Differentiating once with respect to nuclear coordinates.
          Requested convergence is 1.0D-10 RMS, and 1.0D-09 maximum.
          NewPWx=T KeepS1=F KeepF1=F KeepIn=T MapXYZ=F SortEE=F KeepMc=T.
          MDV=    2013265478 using IRadAn=       5.
 Using stored XC quadrature information.
 Keep R1 and R2 ints in memory in canonical form, NReq=263857620.
 FoFCou: FMM=F IPFlag=           0 FMFlag=           0 FMFlg1=           0
         NFxFlg=           0 DoJE=F BraDBF=F KetDBF=F FulRan=T
         wScrn=  0.000000 ICntrl=     600 IOpCl=  0 I1Cent=           0 NGrid=           0
         NMat0=    1 NMatS0=  16110 NMatT0=    0 NMatD0=    1 NMtDS0=    0 NMtDT0=    0
 Symmetry not used in FoFCou.
          Solving linear equations separately, MaxMat=       0.
          There are     1 degrees of freedom in the 1st order CPHF.  IDoFFX=0 NUNeed=     1.
 LinEq1:  Iter=  0 NonCon=     1 RMS=2.92D-03 Max=2.03D-01 NDo=     1
 AX will form     1 AO Fock derivatives at one time.
 LinEq1:  Iter=  1 NonCon=     1 RMS=1.19D-03 Max=4.13D-02 NDo=     1
 LinEq1:  Iter=  2 NonCon=     1 RMS=9.02D-04 Max=2.15D-02 NDo=     1
 LinEq1:  Iter=  3 NonCon=     1 RMS=4.71D-04 Max=1.68D-02 NDo=     1
 LinEq1:  Iter=  4 NonCon=     1 RMS=3.28D-04 Max=1.29D-02 NDo=     1
 LinEq1:  Iter=  5 NonCon=     1 RMS=3.29D-04 Max=1.48D-02 NDo=     1
 LinEq1:  Iter=  6 NonCon=     1 RMS=1.52D-04 Max=5.43D-03 NDo=     1
 LinEq1:  Iter=  7 NonCon=     1 RMS=1.00D-04 Max=2.37D-03 NDo=     1
 LinEq1:  Iter=  8 NonCon=     1 RMS=6.31D-05 Max=2.22D-03 NDo=     1
 LinEq1:  Iter=  9 NonCon=     1 RMS=2.96D-05 Max=6.90D-04 NDo=     1
 LinEq1:  Iter= 10 NonCon=     1 RMS=1.88D-05 Max=4.00D-04 NDo=     1
 LinEq1:  Iter= 11 NonCon=     1 RMS=7.49D-06 Max=1.78D-04 NDo=     1
 LinEq1:  Iter= 12 NonCon=     1 RMS=2.24D-06 Max=3.14D-05 NDo=     1
 LinEq1:  Iter= 13 NonCon=     1 RMS=6.62D-07 Max=8.61D-06 NDo=     1
 LinEq1:  Iter= 14 NonCon=     1 RMS=1.61D-07 Max=2.95D-06 NDo=     1
 LinEq1:  Iter= 15 NonCon=     1 RMS=4.40D-08 Max=7.34D-07 NDo=     1
 LinEq1:  Iter= 16 NonCon=     1 RMS=1.29D-08 Max=2.13D-07 NDo=     1
 LinEq1:  Iter= 17 NonCon=     1 RMS=3.01D-09 Max=6.18D-08 NDo=     1
 LinEq1:  Iter= 18 NonCon=     1 RMS=6.63D-10 Max=1.18D-08 NDo=     1
 LinEq1:  Iter= 19 NonCon=     1 RMS=1.50D-10 Max=2.85D-09 NDo=     1
 LinEq1:  Iter= 20 NonCon=     0 RMS=4.37D-11 Max=7.68D-10 NDo=     1
 Linear equations converged to 1.000D-10 1.000D-09 after    20 iterations.
 End of Minotr F.D. properties file   721 does not exist.
 End of Minotr F.D. properties file   722 does not exist.
 End of Minotr F.D. properties file   788 does not exist.
 Leave Link 1002 at Fri May 26 08:53:46 2023, MaxMem=  2013265920 cpu:       513.8
 (Enter /usr/local/g09/l1102.exe)
 Use density number 2.
 Symmetrizing basis deriv contribution to polar:
 IMax=3 JMax=2 DiffMx= 0.00D+00
 Leave Link 1102 at Fri May 26 08:53:46 2023, MaxMem=  2013265920 cpu:         0.7
 (Enter /usr/local/g09/l1110.exe)
 Forming Gx(P) for generalized density number  2 NAtomX=     9.
 Integral derivatives from FoFJK, PRISM(SPDF).
 Do as many integral derivatives as possible in FoFJK.
 G2DrvN: MDV=    2013265744.
 G2DrvN: will do    10 centers at a time, making    1 passes.
 Calling FoFCou, ICntrl=  3107 FMM=F I1Cent=   0 AccDes= 1.00D-12.
 FoFJK:  IHMeth= 1 ICntrl=    3107 DoSepK=F KAlg= 0 I1Cent=   0 FoldK=F
 IRaf=         0 NMat=   1 IRICut=       1 DoRegI=T DoRafI=F ISym2E= 0.
 FoFCou: FMM=F IPFlag=           0 FMFlag=      100000 FMFlg1=           0
         NFxFlg=           0 DoJE=F BraDBF=F KetDBF=F FulRan=T
         wScrn=  0.000000 ICntrl=    3107 IOpCl=  1 I1Cent=           0 NGrid=           0
         NMat0=    1 NMatS0=      1 NMatT0=    0 NMatD0=    1 NMtDS0=    0 NMtDT0=    0
 Symmetry not used in FoFCou.
 End of G2Drv F.D. properties file   721 does not exist.
 End of G2Drv F.D. properties file   722 does not exist.
 End of G2Drv F.D. properties file   788 does not exist.
 Leave Link 1110 at Fri May 26 08:54:08 2023, MaxMem=  2013265920 cpu:       350.6
 (Enter /usr/local/g09/l1112.exe)
 MP22nd: MDV=    2013265920
 DoSCS=T DFT=T ScalE2(SS,OS)=  0.270000  0.270000
 Using stored XC quadrature information.
 This link is doing NAtomX=     9 total of    30 degrees of freedom.
 Using ON3 I/O method in MakUI.
 Frozen-core window:  NFC=   5 NFV=   0.
 Using Ix for Sx.
 Use MO integrals over full window.
 Using OV2 memory method for fx*t*t/D, MaxI=    20 DoOO2=F NP=  16.
 R2 and R3 integrals will be kept in memory, NReq=   441556470.
 FoFCou: FMM=F IPFlag=           0 FMFlag=           0 FMFlg1=           0
         NFxFlg=           0 DoJE=F BraDBF=F KetDBF=F FulRan=T
         wScrn=  0.000000 ICntrl=     600 IOpCl=  0 I1Cent=           0 NGrid=           0
         NMat0=    1 NMatS0=      1 NMatT0=    0 NMatD0=    1 NMtDS0=    0 NMtDT0=    0
 Symmetry not used in FoFCou.
 DD1Dir will call FoFMem   1 times, MxPair=      1240
 NAB=   420 NAA=   210 NBB=   190.
 Symmetry is being used.
 FoFJK:  IHMeth= 1 ICntrl=       0 DoSepK=F KAlg= 0 I1Cent=   0 FoldK=F
 IRaf=         0 NMat=  30 IRICut=      75 DoRegI=T DoRafI=T ISym2E= 2.
 R6Disp: Adding Grimme-D3(BJ) dispersion energy 1st derivatives to the gradient.
 Discarding MO integrals.
 Leave Link 1112 at Fri May 26 08:57:38 2023, MaxMem=  2013265920 cpu:      3308.7
 (Enter /usr/local/g09/l601.exe)
 Copying SCF densities to generalized density rwf, IOpCl= 1 IROHF=0.

 **********************************************************************

            Population analysis using the SCF density.

 **********************************************************************

 Orbital symmetries:
 Alpha Orbitals:
       Occupied  (A) (A) (A) (A) (A) (A) (A) (A) (A) (A) (A) (A)
                 (A) (A) (A) (A) (A) (A) (A) (A) (A)
       Virtual   (A) (A) (A) (A) (A) (A) (A) (A) (A) (A) (A) (A)
                 (A) (A) (A) (A) (A) (A) (A) (A) (A) (A) (A) (A)
                 (A) (A) (A) (A) (A) (A) (A) (A) (A) (A) (A) (A)
                 (A) (A) (A) (A) (A) (A) (A) (A) (A) (A) (A) (A)
                 (A) (A) (A) (A) (A) (A) (A) (A) (A) (A) (A) (A)
                 (A) (A) (A) (A) (A) (A) (A) (A) (A) (A) (A) (A)
                 (A) (A) (A) (A) (A) (A) (A) (A) (A) (A) (A) (A)
                 (A) (A) (A) (A) (A) (A) (A) (A) (A) (A) (A) (A)
                 (A) (A) (A) (A) (A) (A) (A) (A) (A) (A) (A) (A)
                 (A) (A) (A) (A) (A) (A) (A) (A) (A) (A) (A) (A)
                 (A) (A) (A) (A) (A) (A) (A) (A) (A) (A) (A) (A)
                 (A) (A) (A) (A) (A) (A) (A) (A) (A) (A) (A) (A)
                 (A) (A) (A) (A) (A) (A) (A) (A) (A) (A) (A) (A)
                 (A) (A)
 Beta  Orbitals:
       Occupied  (A) (A) (A) (A) (A) (A) (A) (A) (A) (A) (A) (A)
                 (A) (A) (A) (A) (A) (A) (A) (A)
       Virtual   (A) (A) (A) (A) (A) (A) (A) (A) (A) (A) (A) (A)
                 (A) (A) (A) (A) (A) (A) (A) (A) (A) (A) (A) (A)
                 (A) (A) (A) (A) (A) (A) (A) (A) (A) (A) (A) (A)
                 (A) (A) (A) (A) (A) (A) (A) (A) (A) (A) (A) (A)
                 (A) (A) (A) (A) (A) (A) (A) (A) (A) (A) (A) (A)
                 (A) (A) (A) (A) (A) (A) (A) (A) (A) (A) (A) (A)
                 (A) (A) (A) (A) (A) (A) (A) (A) (A) (A) (A) (A)
                 (A) (A) (A) (A) (A) (A) (A) (A) (A) (A) (A) (A)
                 (A) (A) (A) (A) (A) (A) (A) (A) (A) (A) (A) (A)
                 (A) (A) (A) (A) (A) (A) (A) (A) (A) (A) (A) (A)
                 (A) (A) (A) (A) (A) (A) (A) (A) (A) (A) (A) (A)
                 (A) (A) (A) (A) (A) (A) (A) (A) (A) (A) (A) (A)
                 (A) (A) (A) (A) (A) (A) (A) (A) (A) (A) (A) (A)
                 (A) (A) (A)
 The electronic state is 2-A.
 Alpha  occ. eigenvalues --  -19.86207 -19.62487 -15.08371 -14.94861 -14.94642
 Alpha  occ. eigenvalues --   -1.41544  -1.17410  -1.16677  -0.89665  -0.80889
 Alpha  occ. eigenvalues --   -0.72209  -0.66751  -0.63865  -0.62250  -0.60530
 Alpha  occ. eigenvalues --   -0.50019  -0.47552  -0.41470  -0.39355  -0.27050
 Alpha  occ. eigenvalues --   -0.26469
 Alpha virt. eigenvalues --   -0.03632   0.05204   0.07023   0.12200   0.17644
 Alpha virt. eigenvalues --    0.21312   0.24699   0.25795   0.30493   0.34082
 Alpha virt. eigenvalues --    0.36372   0.37685   0.39546   0.40622   0.43427
 Alpha virt. eigenvalues --    0.44944   0.45768   0.49341   0.51461   0.52808
 Alpha virt. eigenvalues --    0.53386   0.53877   0.54817   0.57414   0.58737
 Alpha virt. eigenvalues --    0.62015   0.62211   0.69852   0.75757   0.79169
 Alpha virt. eigenvalues --    0.83480   0.88586   0.94099   0.99995   1.03182
 Alpha virt. eigenvalues --    1.04080   1.15981   1.21287   1.21714   1.33014
 Alpha virt. eigenvalues --    1.37277   1.41772   1.46178   1.47757   1.55237
 Alpha virt. eigenvalues --    1.57500   1.66430   1.66812   1.67901   1.69305
 Alpha virt. eigenvalues --    1.73449   1.75524   1.78034   1.82868   1.89707
 Alpha virt. eigenvalues --    1.92115   1.95010   1.97071   2.00647   2.02008
 Alpha virt. eigenvalues --    2.03212   2.10532   2.12932   2.17764   2.20680
 Alpha virt. eigenvalues --    2.27181   2.29118   2.32403   2.35969   2.40705
 Alpha virt. eigenvalues --    2.46184   2.51246   2.52964   2.56421   2.58029
 Alpha virt. eigenvalues --    2.63946   2.66419   2.71249   2.74631   2.80199
 Alpha virt. eigenvalues --    2.89896   2.96646   3.01989   3.04031   3.07772
 Alpha virt. eigenvalues --    3.12633   3.21271   3.30202   3.38685   3.40064
 Alpha virt. eigenvalues --    3.51363   3.60672   3.73182   3.79935   3.88605
 Alpha virt. eigenvalues --    3.94111   3.99281   4.02602   4.14449   4.24777
 Alpha virt. eigenvalues --    4.33853   4.36303   4.44739   4.50648   4.53041
 Alpha virt. eigenvalues --    4.56827   4.58451   4.71352   4.71426   4.76017
 Alpha virt. eigenvalues --    4.76396   4.79524   4.82772   4.84468   4.92204
 Alpha virt. eigenvalues --    4.94358   4.99630   5.04868   5.19275   5.21688
 Alpha virt. eigenvalues --    5.23770   5.27465   5.29386   5.29917   5.32753
 Alpha virt. eigenvalues --    5.41978   5.44105   5.44141   5.49829   5.65780
 Alpha virt. eigenvalues --    5.72313   5.73133   5.75563   5.79336   5.96026
 Alpha virt. eigenvalues --    6.02192   6.34362   6.34710   6.37768   6.38954
 Alpha virt. eigenvalues --    6.49110   6.60439   6.61287   6.79423   6.91293
 Alpha virt. eigenvalues --    6.99267   7.07347   7.08047   7.11342   7.18597
 Alpha virt. eigenvalues --    7.23246   7.40972   7.69308  32.14470  32.29565
 Alpha virt. eigenvalues --   32.39919  44.28513  44.29935
  Beta  occ. eigenvalues --  -19.84427 -19.62272 -15.07080 -14.94644 -14.94483
  Beta  occ. eigenvalues --   -1.38404  -1.16638  -1.14748  -0.89061  -0.77865
  Beta  occ. eigenvalues --   -0.66660  -0.64125  -0.62426  -0.61828  -0.56968
  Beta  occ. eigenvalues --   -0.47610  -0.42848  -0.40964  -0.26849  -0.24701
  Beta virt. eigenvalues --   -0.11837  -0.01922   0.05566   0.07176   0.12259
  Beta virt. eigenvalues --    0.17871   0.21820   0.25945   0.26617   0.30368
  Beta virt. eigenvalues --    0.34426   0.37451   0.37955   0.40204   0.41627
  Beta virt. eigenvalues --    0.44038   0.45761   0.46150   0.49739   0.51644
  Beta virt. eigenvalues --    0.53177   0.54010   0.54843   0.54952   0.57960
  Beta virt. eigenvalues --    0.60042   0.62090   0.63103   0.70855   0.76755
  Beta virt. eigenvalues --    0.79529   0.84142   0.89057   0.94291   1.00160
  Beta virt. eigenvalues --    1.03673   1.04256   1.17120   1.22186   1.22410
  Beta virt. eigenvalues --    1.33081   1.38577   1.42562   1.46471   1.49321
  Beta virt. eigenvalues --    1.55851   1.59464   1.66724   1.67659   1.67976
  Beta virt. eigenvalues --    1.69872   1.75228   1.76458   1.78386   1.83607
  Beta virt. eigenvalues --    1.90709   1.92239   1.95950   1.97352   2.01286
  Beta virt. eigenvalues --    2.03309   2.05124   2.11077   2.13882   2.19038
  Beta virt. eigenvalues --    2.21428   2.27540   2.30585   2.32643   2.36010
  Beta virt. eigenvalues --    2.40688   2.47085   2.51512   2.53038   2.56906
  Beta virt. eigenvalues --    2.58097   2.64419   2.67067   2.72913   2.75341
  Beta virt. eigenvalues --    2.81638   2.90646   2.98056   3.03565   3.04162
  Beta virt. eigenvalues --    3.08499   3.13678   3.22471   3.30324   3.38772
  Beta virt. eigenvalues --    3.40322   3.52003   3.61544   3.74851   3.81532
  Beta virt. eigenvalues --    3.89568   3.95137   3.99965   4.03665   4.15424
  Beta virt. eigenvalues --    4.25278   4.34341   4.36381   4.44906   4.51281
  Beta virt. eigenvalues --    4.54362   4.59220   4.60173   4.72554   4.72705
  Beta virt. eigenvalues --    4.76518   4.76922   4.80017   4.85172   4.85238
  Beta virt. eigenvalues --    4.93539   4.95119   4.99749   5.05952   5.21282
  Beta virt. eigenvalues --    5.24552   5.25993   5.27866   5.29911   5.30028
  Beta virt. eigenvalues --    5.33134   5.42699   5.44516   5.44752   5.51246
  Beta virt. eigenvalues --    5.66719   5.72573   5.73459   5.76194   5.81034
  Beta virt. eigenvalues --    5.97907   6.03347   6.34853   6.34875   6.42722
  Beta virt. eigenvalues --    6.43824   6.50466   6.61019   6.61902   6.81245
  Beta virt. eigenvalues --    6.94480   7.00141   7.07853   7.08138   7.11612
  Beta virt. eigenvalues --    7.20823   7.25279   7.42127   7.69450  32.14615
  Beta virt. eigenvalues --   32.29771  32.40972  44.28830  44.31128
          Condensed to atoms (all electrons):
               1          2          3          4          5          6
     1  O    8.036846   0.291404  -0.114548   0.009076  -0.000137   0.008264
     2  N    0.291404   6.107308   0.351920  -0.037288   0.001500  -0.007890
     3  N   -0.114548   0.351920   6.818889   0.324453  -0.000093  -0.078239
     4  H    0.009076  -0.037288   0.324453   0.439097  -0.001426   0.005836
     5  O   -0.000137   0.001500  -0.000093  -0.001426   8.661700   0.112251
     6  N    0.008264  -0.007890  -0.078239   0.005836   0.112251   6.046222
     7  H    0.002519  -0.008015   0.032614  -0.001429  -0.006353   0.345566
     8  H   -0.001179   0.002293   0.000574  -0.000460  -0.052074   0.324614
     9  H   -0.001179   0.002294   0.000573  -0.000460  -0.052075   0.324617
               7          8          9
     1  O    0.002519  -0.001179  -0.001179
     2  N   -0.008015   0.002293   0.002294
     3  N    0.032614   0.000574   0.000573
     4  H   -0.001429  -0.000460  -0.000460
     5  O   -0.006353  -0.052074  -0.052075
     6  N    0.345566   0.324614   0.324617
     7  H    0.367441  -0.010034  -0.010035
     8  H   -0.010034   0.550729  -0.046931
     9  H   -0.010035  -0.046931   0.550726
          Atomic-Atomic Spin Densities.
               1          2          3          4          5          6
     1  O    0.621484  -0.182220   0.033928  -0.001006   0.000154  -0.006558
     2  N   -0.182220   0.641448  -0.041639  -0.017894  -0.000080  -0.001012
     3  N    0.033928  -0.041639   0.021090   0.018030   0.003453  -0.013536
     4  H   -0.001006  -0.017894   0.018030   0.007023  -0.000003   0.000623
     5  O    0.000154  -0.000080   0.003453  -0.000003   0.072581  -0.029716
     6  N   -0.006558  -0.001012  -0.013536   0.000623  -0.029716   0.112453
     7  H    0.001740   0.004480   0.012278  -0.002251   0.008755  -0.012060
     8  H    0.001479  -0.000014   0.001156  -0.000047   0.001996  -0.011163
     9  H    0.001480  -0.000013   0.001156  -0.000047   0.001996  -0.011163
               7          8          9
     1  O    0.001740   0.001479   0.001480
     2  N    0.004480  -0.000014  -0.000013
     3  N    0.012278   0.001156   0.001156
     4  H   -0.002251  -0.000047  -0.000047
     5  O    0.008755   0.001996   0.001996
     6  N   -0.012060  -0.011163  -0.011163
     7  H   -0.031444   0.005112   0.005111
     8  H    0.005112   0.002880   0.002298
     9  H    0.005111   0.002298   0.002880
 Mulliken charges and spin densities:
               1          2
     1  O   -0.231065   0.470481
     2  N    0.296475   0.403057
     3  N   -0.336142   0.035916
     4  H    0.262602   0.004428
     5  O   -0.663292   0.059135
     6  N   -0.081242   0.027867
     7  H    0.287725  -0.008279
     8  H    0.232469   0.003698
     9  H    0.232470   0.003698
 Sum of Mulliken charges =   0.00000   1.00000
 Mulliken charges and spin densities with hydrogens summed into heavy atoms:
               1          2
     1  O   -0.231065   0.470481
     2  N    0.296475   0.403057
     3  N   -0.073541   0.040344
     5  O   -0.663292   0.059135
     6  N    0.671423   0.026984
 APT charges:
               1
     1  O    1.116811
     2  N   -3.077909
     3  N    2.803022
     4  H    0.600983
     5  O   -2.107286
     6  N    3.798912
     7  H   -3.183435
     8  H    0.024452
     9  H    0.024449
 Sum of APT charges =   0.00000
 APT charges with hydrogens summed into heavy atoms:
               1
     1  O    1.116811
     2  N   -3.077909
     3  N    3.404005
     5  O   -2.107286
     6  N    0.664377
 Electronic spatial extent (au):  <R**2>=            628.2041
 Charge=              0.0000 electrons
 Dipole moment (field-independent basis, Debye):
    X=              5.6499    Y=             -0.0985    Z=              0.0003  Tot=              5.6507
 Quadrupole moment (field-independent basis, Debye-Ang):
   XX=            -47.4161   YY=            -24.0566   ZZ=            -28.0354
   XY=              8.7760   XZ=             -0.0006   YZ=              0.0000
 Traceless Quadrupole moment (field-independent basis, Debye-Ang):
   XX=            -14.2468   YY=              9.1128   ZZ=              5.1340
   XY=              8.7760   XZ=             -0.0006   YZ=              0.0000
 Octapole moment (field-independent basis, Debye-Ang**2):
  XXX=             56.6966  YYY=              6.7577  ZZZ=              0.0004  XYY=              2.1255
  XXY=             -3.9221  XXZ=              0.0013  XZZ=              0.1133  YZZ=             -3.3759
  YYZ=              0.0000  XYZ=              0.0000
 Hexadecapole moment (field-independent basis, Debye-Ang**3):
 XXXX=           -756.9893 YYYY=            -88.3863 ZZZZ=            -28.0153 XXXY=             23.0870
 XXXZ=             -0.0026 YYYX=             16.9028 YYYZ=              0.0003 ZZZX=             -0.0011
 ZZZY=             -0.0003 XXYY=           -115.4673 XXZZ=           -103.6236 YYZZ=            -22.8012
 XXYZ=             -0.0003 YYXZ=              0.0000 ZZXY=              3.0332
 N-N= 1.691471203256D+02 E-N=-1.082956379721D+03  KE= 3.155635601190D+02
  Exact polarizability: 566.951  14.058  42.556   0.000   0.000  23.982
 Approx polarizability: 103.399 -18.642  58.705   0.000   0.000  27.490
                          Isotropic Fermi Contact Couplings
        Atom                 a.u.       MegaHertz       Gauss      10(-4) cm-1
     1  O(17)              0.02493     -15.10959      -5.39148      -5.04002
     2  N(14)              0.19408      62.70672      22.37532      20.91671
     3  N(14)             -0.01808      -5.84212      -2.08461      -1.94872
     4  H(1)               0.00934      41.75146      14.89796      13.92679
     5  O(17)              0.03962     -24.01560      -8.56936      -8.01074
     6  N(14)              0.04991      16.12694       5.75449       5.37937
     7  H(1)              -0.01242     -55.49516     -19.80205     -18.51119
     8  H(1)               0.00143       6.40687       2.28613       2.13710
     9  H(1)               0.00143       6.40571       2.28572       2.13672
 --------------------------------------------------------
       Center         ----  Spin Dipole Couplings  ----
                      3XX-RR        3YY-RR        3ZZ-RR
 --------------------------------------------------------
     1   Atom        0.749764      0.100984     -0.850748
     2   Atom        0.887152     -0.217570     -0.669582
     3   Atom        0.575537     -0.616656      0.041119
     4   Atom       -0.034063      0.069923     -0.035861
     5   Atom        0.158238      0.369364     -0.527602
     6   Atom        0.120626      0.022210     -0.142836
     7   Atom        0.048471      0.000256     -0.048727
     8   Atom       -0.003242      0.000589      0.002653
     9   Atom       -0.003241      0.000591      0.002650
 --------------------------------------------------------
                        XY            XZ            YZ
 --------------------------------------------------------
     1   Atom        0.547127     -0.000052     -0.000015
     2   Atom        0.374746     -0.000047     -0.000013
     3   Atom        0.145160     -0.000005     -0.000001
     4   Atom        0.005677      0.000000     -0.000001
     5   Atom        0.848356     -0.000038     -0.000039
     6   Atom        0.206452     -0.000006     -0.000005
     7   Atom        0.065637      0.000000      0.000000
     8   Atom        0.000143      0.004427     -0.010879
     9   Atom        0.000142     -0.004427      0.010879
 --------------------------------------------------------


 ---------------------------------------------------------------------------------
              Anisotropic Spin Dipole Couplings in Principal Axis System
 ---------------------------------------------------------------------------------

       Atom             a.u.   MegaHertz   Gauss  10(-4) cm-1        Axes

              Baa    -0.8507    61.560    21.966    20.534  0.0000  0.0000  1.0000
     1 O(17)  Bbb    -0.2107    15.245     5.440     5.085 -0.4950  0.8689  0.0000
              Bcc     1.0614   -76.805   -27.406   -25.619  0.8689  0.4950  0.0000
 
              Baa    -0.6696   -25.824    -9.215    -8.614  0.0000  0.0000  1.0000
     2 N(14)  Bbb    -0.3327   -12.831    -4.579    -4.280 -0.2937  0.9559  0.0000
              Bcc     1.0023    38.656    13.793    12.894  0.9559  0.2937  0.0000
 
              Baa    -0.6341   -24.455    -8.726    -8.157 -0.1192  0.9929  0.0000
     3 N(14)  Bbb     0.0411     1.586     0.566     0.529  0.0000  0.0000  1.0000
              Bcc     0.5930    22.869     8.160     7.628  0.9929  0.1192  0.0000
 
              Baa    -0.0359   -19.134    -6.827    -6.382 -0.0001  0.0000  1.0000
     4 H(1)   Bbb    -0.0344   -18.339    -6.544    -6.117  0.9985 -0.0544  0.0001
              Bcc     0.0702    37.473    13.371    12.500  0.0544  0.9985  0.0000
 
              Baa    -0.5911    42.771    15.262    14.267  0.7495 -0.6620  0.0000
     5 O(17)  Bbb    -0.5276    38.177    13.622    12.734  0.0000  0.0001  1.0000
              Bcc     1.1187   -80.948   -28.884   -27.001  0.6620  0.7495  0.0000
 
              Baa    -0.1428    -5.509    -1.966    -1.838  0.0000  0.0000  1.0000
     6 N(14)  Bbb    -0.1408    -5.431    -1.938    -1.812 -0.6197  0.7848  0.0000
              Bcc     0.2837    10.940     3.904     3.649  0.7848  0.6197  0.0000
 
              Baa    -0.0487   -25.999    -9.277    -8.672  0.0000  0.0000  1.0000
     7 H(1)   Bbb    -0.0456   -24.309    -8.674    -8.109 -0.5724  0.8200  0.0000
              Bcc     0.0943    50.307    17.951    16.781  0.8200  0.5724  0.0000
 
              Baa    -0.0107    -5.692    -2.031    -1.899 -0.4031  0.6386  0.6555
     8 H(1)   Bbb    -0.0025    -1.340    -0.478    -0.447  0.8942  0.4273  0.1336
              Bcc     0.0132     7.032     2.509     2.346  0.1948 -0.6400  0.7433
 
              Baa    -0.0107    -5.692    -2.031    -1.899  0.4030 -0.6386  0.6556
     9 H(1)   Bbb    -0.0025    -1.340    -0.478    -0.447  0.8942  0.4272 -0.1336
              Bcc     0.0132     7.032     2.509     2.346 -0.1948  0.6401  0.7432
 

 ---------------------------------------------------------------------------------

 No NMR shielding tensors so no spin-rotation constants.
 Leave Link  601 at Fri May 26 08:57:38 2023, MaxMem=  2013265920 cpu:         4.1
 (Enter /usr/local/g09/l701.exe)
 Compute integral second derivatives.
 ... and contract with generalized density number  2.
 Use density number 2.
 R6Disp: Adding Grimme-D3(BJ) dispersion energy 2nd derivatives to the Hessian.
 Entering OneElI...
 Calculate overlap and kinetic energy integrals
    NBasis = 204  MinDer = 2  MaxDer = 2
 Requested accuracy = 0.1000D-14
 PrsmSu:  NPrtUS=  16 ThrOK=T IAlg=1 NPAlg=1 LenDen=           0.
 Prism:   IPart=     0 DynPar=F LinDyn=F Incr=           1.
 PRISM was handed   125758887 working-precision words and  2517 shell-pairs
 PRISM was handed   125758887 working-precision words and  2517 shell-pairs
 PRISM was handed   125758887 working-precision words and  2517 shell-pairs
 PRISM was handed   125758887 working-precision words and  2517 shell-pairs
 PRISM was handed   125758887 working-precision words and  2517 shell-pairs
 PRISM was handed   125758887 working-precision words and  2517 shell-pairs
 PRISM was handed   125758887 working-precision words and  2517 shell-pairs
 PRISM was handed   125758887 working-precision words and  2517 shell-pairs
 PRISM was handed   125758887 working-precision words and  2517 shell-pairs
 PRISM was handed   125758887 working-precision words and  2517 shell-pairs
 PRISM was handed   125758887 working-precision words and  2517 shell-pairs
 PRISM was handed   125758887 working-precision words and  2517 shell-pairs
 PRISM was handed   125758887 working-precision words and  2517 shell-pairs
 PRISM was handed   125758887 working-precision words and  2517 shell-pairs
 PRISM was handed   125758887 working-precision words and  2517 shell-pairs
 PRISM was handed   125758887 working-precision words and  2517 shell-pairs
 IPart= 13 NShTot=         142 NBatch=          27 AvBLen=         5.3
 IPart=  7 NShTot=         151 NBatch=          30 AvBLen=         5.0
 IPart= 11 NShTot=         145 NBatch=          27 AvBLen=         5.4
 IPart= 14 NShTot=         142 NBatch=          27 AvBLen=         5.3
 IPart= 12 NShTot=         144 NBatch=          27 AvBLen=         5.3
 IPart=  6 NShTot=         156 NBatch=          31 AvBLen=         5.0
 IPart=  5 NShTot=         162 NBatch=          31 AvBLen=         5.2
 IPart=  4 NShTot=         165 NBatch=          34 AvBLen=         4.9
 IPart=  3 NShTot=         171 NBatch=          37 AvBLen=         4.6
 IPart=  0 NShTot=         190 NBatch=          52 AvBLen=         3.7
 IPart=  2 NShTot=         180 NBatch=          44 AvBLen=         4.1
 IPart=  1 NShTot=         183 NBatch=          46 AvBLen=         4.0
 IPart= 15 NShTot=         140 NBatch=          26 AvBLen=         5.4
 IPart=  9 NShTot=         149 NBatch=          29 AvBLen=         5.1
 IPart= 10 NShTot=         147 NBatch=          28 AvBLen=         5.3
 IPart=  8 NShTot=         150 NBatch=          29 AvBLen=         5.2
 PrSmSu:  NxtVal=             17.
 Entering OneElI...
 Calculate potential energy integrals
    NBasis = 204  MinDer = 2  MaxDer = 2
 Requested accuracy = 0.1000D-14
 PrsmSu:  NPrtUS=  16 ThrOK=T IAlg=1 NPAlg=1 LenDen=           0.
 Prism:   IPart=     0 DynPar=F LinDyn=F Incr=          13.
 PRISM was handed   125768084 working-precision words and  2393 shell-pairs
 PRISM was handed   125768084 working-precision words and  2393 shell-pairs
 PRISM was handed   125768084 working-precision words and  2393 shell-pairs
 PRISM was handed   125768084 working-precision words and  2393 shell-pairs
 PRISM was handed   125768084 working-precision words and  2393 shell-pairs
 PRISM was handed   125768084 working-precision words and  2393 shell-pairs
 PRISM was handed   125768084 working-precision words and  2393 shell-pairs
 PRISM was handed   125768084 working-precision words and  2393 shell-pairs
 PRISM was handed   125768084 working-precision words and  2393 shell-pairs
 PRISM was handed   125768084 working-precision words and  2393 shell-pairs
 PRISM was handed   125768084 working-precision words and  2393 shell-pairs
 PRISM was handed   125768084 working-precision words and  2393 shell-pairs
 PRISM was handed   125768084 working-precision words and  2393 shell-pairs
 PRISM was handed   125768084 working-precision words and  2393 shell-pairs
 PRISM was handed   125768084 working-precision words and  2393 shell-pairs
 PRISM was handed   125768084 working-precision words and  2393 shell-pairs
 IPart= 14 NShTot=        1188 NBatch=         132 AvBLen=         9.0
 IPart= 12 NShTot=        1233 NBatch=         137 AvBLen=         9.0
 IPart= 11 NShTot=        1242 NBatch=         138 AvBLen=         9.0
 IPart=  6 NShTot=        1359 NBatch=         151 AvBLen=         9.0
 IPart=  7 NShTot=        1350 NBatch=         150 AvBLen=         9.0
 IPart=  4 NShTot=        1440 NBatch=         160 AvBLen=         9.0
 IPart=  5 NShTot=        1386 NBatch=         154 AvBLen=         9.0
 IPart=  3 NShTot=        1467 NBatch=         163 AvBLen=         9.0
 IPart=  2 NShTot=        1494 NBatch=         166 AvBLen=         9.0
 IPart=  1 NShTot=        1530 NBatch=         170 AvBLen=         9.0
 IPart=  0 NShTot=        1593 NBatch=         177 AvBLen=         9.0
 IPart=  8 NShTot=        1332 NBatch=         148 AvBLen=         9.0
 IPart= 10 NShTot=        1269 NBatch=         141 AvBLen=         9.0
 IPart= 15 NShTot=        1179 NBatch=         131 AvBLen=         9.0
 IPart= 13 NShTot=        1197 NBatch=         133 AvBLen=         9.0
 IPart=  9 NShTot=        1278 NBatch=         142 AvBLen=         9.0
 PrSmSu:  NxtVal=            209.
   1 Symmetry operations used in ECPInt.
 ECPInt:  NShTT=    2556 NPrTT=    7872 LenC2=    2483 LenP2D=    6208.
 LDataN:  DoStor=F MaxTD1= 8 Len=  415
 LDataN:  DoStor=T MaxTD1= 8 Len=  415
 ECPSu:  NPrtUS=  16 ThrOK=T
 Polarizability after L701:
                1             2             3 
      1  0.566951D+03
      2  0.140582D+02  0.425561D+02
      3  0.441340D-03  0.202966D-05  0.239820D+02
 Dipole Derivatives after L701:
                 1             2             3             4             5 
      1   0.473057D+01  0.575010D+01 -0.597035D-04 -0.108859D+02 -0.624184D+01
      2   0.935708D-01 -0.121544D+01 -0.440579D-05 -0.112201D+01  0.160588D+01
      3   0.548482D-05 -0.138772D-04 -0.164703D+00 -0.246405D-04  0.211773D-04
                 6             7             8             9            10 
      1   0.186958D-03  0.942486D+01  0.312157D+01 -0.167501D-03  0.118390D+01
      2   0.323622D-04  0.118309D+01 -0.660240D+00 -0.361506D-04 -0.941231D-01
      3   0.462982D-01  0.198375D-04 -0.726764D-05 -0.355558D+00  0.219746D-05
                11            12            13            14            15 
      1   0.523171D+00 -0.295818D-05 -0.548804D+01  0.325396D+01 -0.325836D-03
      2   0.267725D+00  0.507132D-05 -0.164591D+00 -0.352455D+00 -0.112276D-04
      3   0.265592D-05  0.351325D+00 -0.756213D-05  0.497531D-05 -0.481359D+00
                16            17            18            19            20 
      1   0.107649D+02  0.379844D+01  0.153662D-03 -0.962212D+01 -0.714880D+01
      2   0.101161D+00  0.409319D+00 -0.839113D-05 -0.192195D+00 -0.853912D-01
      3   0.294962D-04 -0.878955D-05  0.222557D+00 -0.155052D-04 -0.717392D-05
                21            22            23            24            25 
      1   0.738173D-04 -0.540561D-01 -0.152831D+01 -0.456185D-01 -0.540796D-01
      2   0.498504D-05  0.975390D-01  0.153077D-01  0.818554D-01  0.975506D-01
      3   0.157205D+00 -0.546974D-01  0.755097D-01  0.112105D+00  0.546881D-01
                26            27 
      1  -0.152830D+01  0.457601D-01
      2   0.152945D-01 -0.818376D-01
      3  -0.755014D-01  0.112131D+00
 Hessian after L701:
                1             2             3             4             5 
      1  0.119629D+02
      2  0.109050D+01 -0.428796D+01
      3  0.631481D-04 -0.895906D-04  0.155257D+02
      4 -0.130059D+02 -0.369240D+00 -0.559285D-04  0.141495D+02
      5 -0.625870D+00  0.449927D+01  0.822628D-04  0.726228D+01  0.157424D+01
      6 -0.581752D-04  0.798628D-04 -0.154886D+02  0.363300D-03 -0.269133D-03
      7  0.221162D+00 -0.295313D+00  0.814829D-05 -0.176916D+01 -0.700336D+01
      8 -0.978372D-01 -0.206286D+00  0.205639D-05 -0.704938D+01 -0.566391D+01
      9  0.987899D-05  0.469354D-05  0.513847D+00 -0.302814D-03  0.192620D-03
     10 -0.863600D-01 -0.489984D-01  0.000000D+00  0.548338D-01  0.145287D+00
     11 -0.540314D-01  0.321945D+00  0.000000D+00 -0.606058D-02 -0.132640D+00
     12  0.000000D+00  0.000000D+00 -0.566575D-01  0.000000D+00 -0.279109D-05
     13  0.231483D+00 -0.442279D-01  0.000000D+00  0.124994D+00 -0.564408D-01
     14 -0.101667D+00 -0.112974D+00  0.000000D+00  0.700683D-01 -0.730119D-01
     15  0.436333D-05  0.327900D-05 -0.102455D+00 -0.529808D-05 -0.391146D-05
     16  0.478649D+00 -0.299364D+00 -0.105006D-04  0.598067D+00  0.274913D+00
     17 -0.205951D+00 -0.287929D+00  0.226389D-05  0.206232D+00 -0.123218D+00
     18 -0.137842D-04  0.000000D+00 -0.290678D+00 -0.149765D-05  0.000000D+00
     19  0.151211D+00 -0.329854D-01 -0.479540D-05 -0.232495D+00 -0.456205D-01
     20 -0.922213D-01  0.923083D-01  0.216764D-05 -0.141338D+00 -0.401507D-01
     21 -0.341135D-05  0.123426D-05 -0.815070D-01  0.278791D-05  0.000000D+00
     22  0.234069D-01 -0.183951D-03 -0.648270D-02  0.400526D-01  0.244030D-01
     23  0.435373D-01 -0.918448D-02 -0.584008D-02  0.137144D-01 -0.202909D-01
     24 -0.484878D-01  0.640391D-02 -0.982672D-02 -0.516596D-01 -0.201392D-01
     25  0.234090D-01 -0.183236D-03  0.648104D-02  0.400543D-01  0.244066D-01
     26  0.435444D-01 -0.918717D-02  0.583995D-02  0.137230D-01 -0.202875D-01
     27  0.484853D-01 -0.640383D-02 -0.983196D-02  0.516598D-01  0.201407D-01
                6             7             8             9            10 
      6  0.286212D+02
      7 -0.297853D-03  0.503620D+01
      8  0.190079D-03  0.576600D+01  0.749507D+01
      9 -0.128763D+02  0.291088D-03 -0.175859D-03  0.177769D+02
     10 -0.173532D-05 -0.423907D+01  0.475469D+00 -0.344039D-05  0.421454D+01
     11  0.000000D+00  0.568172D+00 -0.975959D+00 -0.220932D-04 -0.643670D+00
     12  0.162932D-02 -0.401661D-05 -0.174774D-04 -0.432648D+01  0.483913D-05
     13  0.375451D-05  0.375380D+00  0.162548D+00  0.563342D-05  0.232931D-01
     14 -0.137921D-05  0.110646D+00 -0.180045D+00  0.393772D-05  0.810529D-02
     15 -0.972000D-01  0.114531D-04  0.338035D-05 -0.192572D+00  0.000000D+00
     16 -0.978467D-05 -0.599265D-01  0.240594D-01  0.000000D+00  0.183419D-01
     17 -0.344258D-05  0.269493D-01 -0.120264D+00 -0.173494D-05  0.620589D-01
     18 -0.177094D+00 -0.216650D-05 -0.148489D-05 -0.120075D+00  0.000000D+00
     19  0.237070D-05  0.439436D+00  0.657001D+00  0.161246D-05  0.140387D-01
     20  0.208307D-05  0.675820D+00 -0.419603D+00  0.000000D+00 -0.773926D-02
     21  0.360900D-01  0.000000D+00  0.141123D-05 -0.764101D+00  0.000000D+00
     22 -0.183479D-01 -0.200944D-02  0.310711D-01 -0.169950D-01  0.191202D-03
     23 -0.116469D-01  0.755423D-01  0.354977D-01 -0.251550D-01  0.474361D-02
     24 -0.986047D-02 -0.326970D-01 -0.361503D-01 -0.562485D-02 -0.263027D-02
     25  0.183461D-01 -0.201372D-02  0.310692D-01  0.169924D-01  0.191198D-03
     26  0.116478D-01  0.755428D-01  0.355041D-01  0.251537D-01  0.474399D-02
     27 -0.986458D-02  0.326897D-01  0.361482D-01 -0.562681D-02  0.262977D-02
               11            12            13            14            15 
     11  0.715147D+00
     12  0.204104D-04  0.442301D+01
     13  0.510779D-01  0.000000D+00 -0.384792D+00
     14  0.887679D-02  0.000000D+00  0.435528D+01  0.563748D+01
     15  0.000000D+00 -0.118883D-01 -0.458638D-03  0.246598D-03  0.812093D+01
     16  0.102905D+00  0.000000D+00  0.151789D+00 -0.512048D+01  0.524105D-03
     17  0.583282D-01  0.000000D+00 -0.507864D+01 -0.569035D+01 -0.295847D-03
     18  0.000000D+00 -0.353091D-01  0.523236D-03 -0.297034D-03 -0.872195D+01
     19 -0.202145D-01  0.000000D+00 -0.142922D-01  0.272958D+00 -0.137445D-04
     20 -0.145596D-01  0.000000D+00  0.229204D+00  0.991317D-01  0.326215D-05
     21  0.000000D+00  0.549797D-02 -0.123741D-04  0.492337D-05  0.321468D-01
     22  0.911193D-03  0.320663D-03 -0.253934D+00  0.202555D+00  0.712178D-01
     23  0.943063D-02  0.663929D-04  0.190609D+00  0.155421D+00 -0.251070D+00
     24 -0.102633D-01  0.101159D-03  0.954064D-01 -0.254016D+00  0.486528D+00
     25  0.910587D-03 -0.320639D-03 -0.253922D+00  0.202536D+00 -0.712809D-01
     26  0.943177D-02 -0.664000D-04  0.190589D+00  0.155469D+00  0.251112D+00
     27  0.102625D-01  0.100940D-03 -0.954689D-01  0.254059D+00  0.486467D+00
               16            17            18            19            20 
     16  0.892437D+01
     17  0.378229D+01  0.151654D+02
     18 -0.389188D-03  0.212937D-03  0.176019D+02
     19 -0.131345D+01  0.181724D+01 -0.171167D-04  0.915966D+00
     20  0.198126D+01 -0.260502D+01 -0.109493D-04 -0.246722D+01  0.304845D+01
     21 -0.186826D-04 -0.107304D-04 -0.390990D+01  0.213232D-04 -0.160781D-05
     22 -0.439894D+01 -0.305016D+00  0.440479D+00  0.197883D-01 -0.888856D-01
     23 -0.372711D+00 -0.319864D+01 -0.168668D+01 -0.905812D-01 -0.802708D-01
     24  0.558242D+00 -0.162926D+01 -0.217325D+01  0.330007D-01  0.578251D-01
     25 -0.439891D+01 -0.305161D+00 -0.440578D+00  0.197945D-01 -0.888895D-01
     26 -0.372876D+00 -0.319831D+01  0.168678D+01 -0.905781D-01 -0.802861D-01
     27 -0.558338D+00  0.162935D+01 -0.217368D+01 -0.329903D-01 -0.578198D-01
               21            22            23            24            25 
     21  0.465912D+01
     22  0.735961D-01  0.439190D+01
     23  0.971518D-01  0.139912D+00  0.292011D+01
     24  0.113205D-01 -0.547496D+00  0.188441D+01  0.201412D+01
     25 -0.735865D-01  0.179542D+00 -0.476643D-02 -0.367900D-02  0.439185D+01
     26 -0.971473D-01 -0.476594D-02  0.187933D+00  0.118333D-02  0.140077D+00
     27  0.113305D-01  0.370785D-02 -0.123617D-02 -0.313506D+00  0.547625D+00
               26            27 
     26  0.291973D+01
     27 -0.188450D+01  0.201462D+01
 Leave Link  701 at Fri May 26 08:57:39 2023, MaxMem=  2013265920 cpu:         6.4
 (Enter /usr/local/g09/l702.exe)
 L702 exits ... SP integral derivatives will be done elsewhere.
 Leave Link  702 at Fri May 26 08:57:39 2023, MaxMem=  2013265920 cpu:         0.5
 (Enter /usr/local/g09/l703.exe)
 Compute integral second derivatives, UseDBF=F ICtDFT=           0.
 Integral derivatives from FoFJK, PRISM(SPDF).
 ICntrl=  10100127.
 Calling FoFJK, ICntrl=  10100127 FMM=F ISym2X=0 I1Cent= 0 IOpClX= 1 NMat=1 NMatS=1 NMatT=0.
 FoFJK:  IHMeth= 1 ICntrl=10100127 DoSepK=F KAlg= 0 I1Cent=   0 FoldK=F
 IRaf=         0 NMat=   1 IRICut=       1 DoRegI=T DoRafI=F ISym2E= 0.
 FoFCou: FMM=F IPFlag=           0 FMFlag=      100000 FMFlg1=         800
         NFxFlg=           0 DoJE=F BraDBF=F KetDBF=F FulRan=T
         wScrn=  0.000000 ICntrl=10100127 IOpCl=  1 I1Cent=           0 NGrid=           0
         NMat0=    1 NMatS0=      1 NMatT0=    0 NMatD0=    1 NMtDS0=    0 NMtDT0=    0
 Symmetry not used in FoFCou.
 FoFCou:  KetSym=F NOpSet=  1 NOpAb=1 NOp=  1.
 FoFCou:  CnvScl= 1.00D+00 Thresh= 1.00D-12 IAcrcy=      10.
 PrismS was handed  2013010390 working-precision words and  2460 shell-pairs
 FoFCou: LinMIO=F DoNuc=F BraDBF=F KetDBF=F HaveP=T PDBF=F HaveZ=T HaveW=F
         NIJTC =      10 NIJTAt=       0 NIJTCD=       0 NIJTT =      10
         IJTBeg=       1 IJTEnd=      10 KLTBeg=       1 KLTEnd=      10
         IPTBeg=       1 IPTEnd=      10 IPTBCv=       1 IPTECv=      10
         IZTBeg=       1 IZTEnd=      10 IZTBCv=       1 IZTECv=      10
         IWTBeg=      11 IWTEnd=      10 IWTBCv=      11 IWTECv=      10
         INTBeg=       1 INTEnd=       0 IFTBCv=       1 IFTECv=      10
 NCel replicated for PrismC:     1
 CoulSu:  IncDef=  1024 NBBP=        3027030 NTPThr=   100 NPartT=   16 Incr=        1024 LDynOK=F.
 CoulSu:  NPrtUS=  16 ThrOK=T IAlg=1 NPAlg=1 LenDen=           0 LWGrdD=           0 DoCopy=F.
 Enter PrismC: JobTyp=22 DoJE=F Cont=F.
 PrismC:  IPart=     0 DynPar=T LinDyn=F Incr=        1024 UseFst=F UseS4=T IGathr=2.
 PrismC was handed   125765860 working-precision words and  2460 shell-pairs
 Enter PrismC: JobTyp=22 DoJE=F Cont=F.
 PrismC was handed   125765860 working-precision words and  2460 shell-pairs
 Enter PrismC: JobTyp=22 DoJE=F Cont=F.
 PrismC was handed   125765860 working-precision words and  2460 shell-pairs
 Enter PrismC: JobTyp=22 DoJE=F Cont=F.
 PrismC was handed   125765860 working-precision words and  2460 shell-pairs
 Enter PrismC: JobTyp=22 DoJE=F Cont=F.
 PrismC was handed   125765860 working-precision words and  2460 shell-pairs
 Enter PrismC: JobTyp=22 DoJE=F Cont=F.
 PrismC was handed   125765860 working-precision words and  2460 shell-pairs
 Enter PrismC: JobTyp=22 DoJE=F Cont=F.
 PrismC was handed   125765860 working-precision words and  2460 shell-pairs
 Enter PrismC: JobTyp=22 DoJE=F Cont=F.
 PrismC was handed   125765860 working-precision words and  2460 shell-pairs
 Enter PrismC: JobTyp=22 DoJE=F Cont=F.
 Enter PrismC: JobTyp=22 DoJE=F Cont=F.
 PrismC was handed   125765860 working-precision words and  2460 shell-pairs
 PrismC was handed   125765860 working-precision words and  2460 shell-pairs
 Enter PrismC: JobTyp=22 DoJE=F Cont=F.
 Enter PrismC: JobTyp=22 DoJE=F Cont=F.
 PrismC was handed   125765860 working-precision words and  2460 shell-pairs
 PrismC was handed   125765860 working-precision words and  2460 shell-pairs
 Enter PrismC: JobTyp=22 DoJE=F Cont=F.
 Enter PrismC: JobTyp=22 DoJE=F Cont=F.
 PrismC was handed   125765860 working-precision words and  2460 shell-pairs
 PrismC was handed   125765860 working-precision words and  2460 shell-pairs
 Enter PrismC: JobTyp=22 DoJE=F Cont=F.
 PrismC was handed   125765860 working-precision words and  2460 shell-pairs
 Enter PrismC: JobTyp=22 DoJE=F Cont=F.
 PrismC was handed   125765860 working-precision words and  2460 shell-pairs
 IPart= 12 NShTot=      164823 NShNF=      164823 NShFF=           0 NBatch=        4777 AvBLen=        34.5
 IPart=  1 NShTot=      166686 NShNF=      166686 NShFF=           0 NBatch=        4690 AvBLen=        35.5
 IPart= 13 NShTot=      150337 NShNF=      150337 NShFF=           0 NBatch=        4593 AvBLen=        32.7
 IPart= 11 NShTot=      164869 NShNF=      164869 NShFF=           0 NBatch=        4778 AvBLen=        34.5
 IPart=  4 NShTot=      168688 NShNF=      168688 NShFF=           0 NBatch=        4584 AvBLen=        36.8
 IPart=  7 NShTot=      152970 NShNF=      152970 NShFF=           0 NBatch=        4241 AvBLen=        36.1
 IPart= 14 NShTot=      137106 NShNF=      137106 NShFF=           0 NBatch=        4246 AvBLen=        32.3
 IPart=  5 NShTot=      150182 NShNF=      150182 NShFF=           0 NBatch=        4289 AvBLen=        35.0
 IPart=  2 NShTot=      160602 NShNF=      160602 NShFF=           0 NBatch=        4098 AvBLen=        39.2
 IPart=  6 NShTot=      151594 NShNF=      151594 NShFF=           0 NBatch=        4143 AvBLen=        36.6
 IPart=  3 NShTot=      165827 NShNF=      165827 NShFF=           0 NBatch=        4941 AvBLen=        33.6
 IPart=  0 NShTot=      158522 NShNF=      158522 NShFF=           0 NBatch=        4468 AvBLen=        35.5
 IPart=  9 NShTot=      140637 NShNF=      140637 NShFF=           0 NBatch=        4284 AvBLen=        32.8
 IPart= 10 NShTot=      106986 NShNF=      106986 NShFF=           0 NBatch=        3620 AvBLen=        29.6
 IPart= 15 NShTot=      155146 NShNF=      155146 NShFF=           0 NBatch=        4568 AvBLen=        34.0
 IPart=  8 NShTot=      125420 NShNF=      125420 NShFF=           0 NBatch=        4001 AvBLen=        31.3
 CoulSu:  NxtVal=        3230721.
 ReadGW:  IGet=0 IStart=           1 Next=           1 LGW=           0.
 Remaining memory in FofDFT     1919.92 Mw
 CkSvGd:  ISavGI=        -1 IRadAn=       5 IRASav=       5 ISavGd=        -1.
 CalDSu:  NPrtUS=  16 ThrOK=T IAlg=1 NPAlg=2 DoDPD=T LenP=       20910 LenD1P=             0.
 IPart=  0 IRanGd=          0 ScrnBf=T ScrnGd=T RCrit=4.00D+00 DoMicB=T.
 IPart= 14        11284 of        12572 points in      12 batches and       74 microbatches, Max-NSigAt=       9 Max-NSgAt2=       9
 IPart=  0        10792 of        11700 points in      11 batches and       61 microbatches, Max-NSigAt=       9 Max-NSgAt2=       9
 IPart= 15        13642 of        14800 points in      11 batches and       89 microbatches, Max-NSigAt=       9 Max-NSgAt2=       9
 IPart=  4        11643 of        12614 points in      13 batches and       90 microbatches, Max-NSigAt=       9 Max-NSgAt2=       9
 IPart=  2        10830 of        11364 points in       9 batches and       53 microbatches, Max-NSigAt=       9 Max-NSgAt2=       9
 IPart= 13        12672 of        14158 points in      14 batches and       70 microbatches, Max-NSigAt=       9 Max-NSgAt2=       9
 IPart=  6        10408 of        11322 points in      11 batches and       79 microbatches, Max-NSigAt=       9 Max-NSgAt2=       9
 IPart=  3        12736 of        13802 points in      13 batches and       64 microbatches, Max-NSigAt=       9 Max-NSgAt2=       9
 IPart= 10        10471 of        11280 points in      12 batches and       85 microbatches, Max-NSigAt=       9 Max-NSgAt2=       9
 IPart= 12        12171 of        12986 points in      11 batches and       60 microbatches, Max-NSigAt=       9 Max-NSgAt2=       9
 IPart=  5         9376 of        10086 points in      12 batches and       76 microbatches, Max-NSigAt=       9 Max-NSgAt2=       9
 IPart=  8        12713 of        14038 points in      13 batches and       61 microbatches, Max-NSigAt=       9 Max-NSgAt2=       9
 IPart=  1        10859 of        11238 points in      11 batches and       57 microbatches, Max-NSigAt=       9 Max-NSgAt2=       9
 IPart=  7        11391 of        11990 points in      10 batches and       50 microbatches, Max-NSigAt=       9 Max-NSgAt2=       9
 IPart= 11        12819 of        13900 points in      13 batches and       81 microbatches, Max-NSigAt=       9 Max-NSgAt2=       9
 IPart=  9        13505 of        14336 points in      11 batches and       68 microbatches, Max-NSigAt=       9 Max-NSgAt2=       9
 Polarizability after L703:
                1             2             3 
      1  0.566951D+03
      2  0.140582D+02  0.425561D+02
      3  0.441340D-03  0.202966D-05  0.239820D+02
 Dipole Derivatives after L703:
                 1             2             3             4             5 
      1   0.473057D+01  0.575010D+01 -0.597035D-04 -0.108859D+02 -0.624184D+01
      2   0.935708D-01 -0.121544D+01 -0.440579D-05 -0.112201D+01  0.160588D+01
      3   0.548482D-05 -0.138772D-04 -0.164703D+00 -0.246405D-04  0.211773D-04
                 6             7             8             9            10 
      1   0.186958D-03  0.942486D+01  0.312157D+01 -0.167501D-03  0.118390D+01
      2   0.323622D-04  0.118309D+01 -0.660240D+00 -0.361506D-04 -0.941231D-01
      3   0.462982D-01  0.198375D-04 -0.726764D-05 -0.355558D+00  0.219746D-05
                11            12            13            14            15 
      1   0.523171D+00 -0.295818D-05 -0.548804D+01  0.325396D+01 -0.325836D-03
      2   0.267725D+00  0.507132D-05 -0.164591D+00 -0.352455D+00 -0.112276D-04
      3   0.265592D-05  0.351325D+00 -0.756213D-05  0.497531D-05 -0.481359D+00
                16            17            18            19            20 
      1   0.107649D+02  0.379844D+01  0.153662D-03 -0.962212D+01 -0.714880D+01
      2   0.101161D+00  0.409319D+00 -0.839113D-05 -0.192195D+00 -0.853912D-01
      3   0.294962D-04 -0.878955D-05  0.222557D+00 -0.155052D-04 -0.717392D-05
                21            22            23            24            25 
      1   0.738173D-04 -0.540561D-01 -0.152831D+01 -0.456185D-01 -0.540796D-01
      2   0.498504D-05  0.975390D-01  0.153077D-01  0.818554D-01  0.975506D-01
      3   0.157205D+00 -0.546974D-01  0.755097D-01  0.112105D+00  0.546881D-01
                26            27 
      1  -0.152830D+01  0.457601D-01
      2   0.152945D-01 -0.818376D-01
      3  -0.755014D-01  0.112131D+00
 Hessian after L703:
                1             2             3             4             5 
      1  0.440203D-01
      2 -0.614183D-01  0.778602D+00
      3 -0.135827D-05  0.331758D-05  0.198961D-01
      4 -0.937794D-02 -0.377188D-02  0.000000D+00  0.267645D+00
      5 -0.423456D-01 -0.703735D+00  0.000000D+00 -0.122927D+00  0.983546D+00
      6  0.000000D+00 -0.116761D-05 -0.295400D-01 -0.771535D-05  0.499038D-05
      7 -0.734473D-01  0.316138D-01  0.000000D+00 -0.161752D+00  0.155108D+00
      8  0.741217D-01 -0.110292D+00 -0.249432D-05  0.201494D+00 -0.227260D+00
      9  0.145019D-05 -0.145902D-05  0.211603D-02  0.529054D-05 -0.355659D-05
     10 -0.152355D-01 -0.151736D-01  0.000000D+00  0.273825D-01  0.652810D-01
     11  0.130411D-02  0.735177D-02  0.000000D+00 -0.537680D-03 -0.334909D-01
     12  0.000000D+00  0.000000D+00  0.126063D-01  0.000000D+00 -0.134813D-05
     13  0.498915D-01  0.545399D-01  0.000000D+00 -0.111253D+00 -0.579952D-01
     14 -0.300133D-01 -0.328563D-01  0.000000D+00  0.742894D-01  0.314420D-01
     15  0.323364D-05  0.352414D-05  0.948245D-03 -0.733855D-05 -0.366886D-05
     16 -0.105533D+00 -0.106341D+00  0.127381D-05  0.238520D+00  0.109160D+00
     17 -0.454282D-01 -0.394873D-01  0.000000D+00  0.901902D-01  0.454677D-01
     18 -0.170296D-05 -0.194348D-05 -0.323517D-02  0.317798D-05  0.211764D-05
     19  0.105481D+00  0.936894D-01 -0.135108D-05 -0.242191D+00 -0.994021D-01
     20  0.705423D-01  0.650439D-01  0.000000D+00 -0.163287D+00 -0.586016D-01
     21  0.000000D+00  0.000000D+00 -0.415111D-02  0.242491D-05  0.000000D+00
     22  0.210026D-02  0.343073D-02  0.289170D-03 -0.448639D-02 -0.343973D-02
     23  0.166186D-01  0.176861D-01  0.456103D-04 -0.377247D-01 -0.186841D-01
     24 -0.160232D-02 -0.183728D-02  0.679875D-03  0.740099D-03  0.275206D-02
     25  0.210022D-02  0.343087D-02 -0.289192D-03 -0.448661D-02 -0.343981D-02
     26  0.166188D-01  0.176865D-01 -0.459091D-04 -0.377249D-01 -0.186846D-01
     27  0.160105D-02  0.183592D-02  0.679713D-03 -0.736734D-03 -0.275073D-02
                6             7             8             9            10 
      6  0.442136D-01
      7  0.638500D-05  0.252830D+00
      8 -0.510796D-05 -0.166785D+00  0.741097D+00
      9 -0.505634D-02 -0.745551D-05  0.283911D-05  0.118434D-01
     10 -0.105244D-05 -0.900446D-01 -0.131225D+00  0.226988D-05  0.634755D-01
     11  0.000000D+00 -0.798211D-01 -0.400058D+00  0.333244D-05  0.746631D-01
     12 -0.179228D-01  0.150183D-05  0.493987D-05 -0.286409D-02 -0.171690D-05
     13  0.197049D-05  0.993741D-01  0.285825D-01 -0.160269D-05  0.982288D-02
     14 -0.120844D-05 -0.668378D-01 -0.148557D-01  0.114276D-05 -0.630657D-02
     15 -0.136341D-02  0.644499D-05  0.178939D-05  0.122210D-02  0.000000D+00
     16 -0.394534D-05 -0.237534D+00 -0.799430D-01  0.352409D-05 -0.258960D-01
     17 -0.148901D-05 -0.101188D+00 -0.361277D-01  0.136748D-05 -0.896122D-02
     18  0.301373D-02 -0.248628D-05  0.000000D+00  0.472197D-02  0.000000D+00
     19  0.409072D-05  0.206602D+00  0.711202D-01 -0.323373D-05  0.284174D-01
     20  0.272051D-05  0.163946D+00  0.292373D-01 -0.248351D-05  0.155334D-01
     21  0.810850D-02 -0.200458D-05  0.000000D+00 -0.125096D-01  0.000000D+00
     22 -0.482653D-04  0.198594D-02  0.131729D-02 -0.136089D-02  0.103887D-02
     23  0.162226D-03  0.319816D-01  0.912931D-02 -0.130461D-02  0.309454D-02
     24 -0.726705D-03  0.236481D-03 -0.632141D-03  0.263278D-03  0.133935D-03
     25  0.484013D-04  0.198600D-02  0.131746D-02  0.136065D-02  0.103900D-02
     26 -0.161011D-03  0.319815D-01  0.912953D-02  0.130343D-02  0.309458D-02
     27 -0.726544D-03 -0.239499D-03  0.631401D-03  0.263239D-03 -0.134234D-03
               11            12            13            14            15 
     11  0.422844D+00
     12 -0.333170D-05  0.101120D-01
     13  0.487867D-02  0.000000D+00  0.255540D+00
     14 -0.349403D-02  0.000000D+00 -0.130261D+00  0.119061D+00
     15  0.000000D+00  0.465541D-04  0.128375D-04 -0.747624D-05  0.473062D-01
     16 -0.109418D-01  0.000000D+00 -0.118581D+00  0.252779D-01 -0.219017D-05
     17 -0.511935D-02  0.000000D+00  0.136105D+00 -0.153786D+00  0.767223D-05
     18  0.000000D+00 -0.111185D-02 -0.738970D-05  0.385907D-05 -0.841156D-01
     19  0.107436D-01  0.000000D+00 -0.139402D+00  0.668866D-01 -0.791167D-05
     20  0.851508D-02  0.000000D+00 -0.518717D-01  0.645461D-01 -0.474077D-05
     21  0.000000D+00 -0.130614D-02 -0.162346D-05 -0.104031D-05  0.428401D-02
     22 -0.144396D-03  0.253091D-03 -0.226947D-01  0.334810D-01 -0.272827D-01
     23  0.172545D-02  0.285435D-03  0.800990D-02 -0.502762D-02  0.992870D-02
     24 -0.873809D-04  0.220002D-03 -0.159113D-01  0.385392D-02  0.158340D-01
     25 -0.144426D-03 -0.253061D-03 -0.226971D-01  0.334841D-01  0.272770D-01
     26  0.172544D-02 -0.285423D-03  0.801198D-02 -0.502894D-02 -0.992612D-02
     27  0.872247D-04  0.219959D-03  0.159079D-01 -0.384950D-02  0.158380D-01
               16            17            18            19            20 
     16  0.224663D+00
     17 -0.101443D+00  0.519920D+00
     18 -0.938195D-05  0.777652D-05  0.687495D+00
     19  0.112445D+00  0.197546D-01  0.484239D-05 -0.721779D-01
     20  0.953119D-01 -0.566167D-01  0.289019D-05 -0.974012D-01  0.182880D-01
     21  0.000000D+00  0.000000D+00 -0.608822D-01  0.000000D+00  0.000000D+00
     22 -0.440427D-01  0.548078D-02 -0.960672D-02  0.411863D-03 -0.163856D-01
     23  0.344552D-01 -0.137110D+00  0.142847D+00 -0.326961D-01 -0.352051D-01
     24 -0.266113D-02  0.128559D+00 -0.272957D+00  0.100438D-02  0.124964D-03
     25 -0.440430D-01  0.548996D-02  0.961993D-02  0.412877D-03 -0.163881D-01
     26  0.344643D-01 -0.137140D+00 -0.142861D+00 -0.326950D-01 -0.352072D-01
     27  0.267148D-02 -0.128575D+00 -0.272929D+00 -0.100108D-02 -0.122278D-03
               21            22            23            24            25 
     21  0.665854D-01
     22  0.213296D-01  0.633720D-01
     23  0.200905D-01 -0.214123D-01  0.157121D+00
     24 -0.649046D-04  0.172424D-01 -0.152392D+00  0.282987D+00
     25 -0.213280D-01  0.231484D-02 -0.232666D-02  0.817529D-03  0.633739D-01
     26 -0.200887D-01 -0.232771D-02  0.103653D-01  0.196592D-01 -0.214234D-01
     27 -0.639473D-04 -0.815609D-03 -0.196631D-01 -0.262354D-01 -0.172533D-01
               26            27 
     26  0.157154D+00
     27  0.152406D+00  0.282954D+00
 Leave Link  703 at Fri May 26 08:58:31 2023, MaxMem=  2013265920 cpu:       826.4
 (Enter /usr/local/g09/l716.exe)
 FrcOut:
 IF    =    55 IFX   =    82 IFXYZ =   109
 IFFX  =   136 IFFFX =   514 IFLen =    27
 IFFLen=   378 IFFFLn=     0 IEDerv=   514
 LEDerv=  1349 IFroze=  2176 ICStrt= 66724
 Dipole        = 9.19716696D-01-5.24990357D-02 9.75216904D-05
[...]
      2        7          -0.000000118    0.000000120    0.000000102
      3        7           0.000000007    0.000000210   -0.000000071
      4        1          -0.000000005   -0.000000013    0.000000013
      5        8          -0.000000091    0.000000056    0.000000096
      6        7          -0.000000064   -0.000000013   -0.000000718
      7        1           0.000000081   -0.000000135    0.000000001
      8        1           0.000000040   -0.000000137    0.000000414
      9        1           0.000000050    0.000000228    0.000000214
 -------------------------------------------------------------------
 ***** Axes restored to original set *****
 Rotating derivatives, DoTrsp=F IDiff=-2 LEDeriv=   1348 LFDPrp=       0 LDFDPr=       0.
 -------------------------------------------------------------------
 Center     Atomic                   Forces (Hartrees/Bohr)
 Number     Number              X              Y              Z
 -------------------------------------------------------------------
      1        8           0.000000290    0.000000138   -0.000000101
      2        7          -0.000000123   -0.000000031    0.000000151
      3        7          -0.000000189   -0.000000099   -0.000000060
      4        1           0.000000012    0.000000006    0.000000014
      5        8          -0.000000060   -0.000000010    0.000000131
      6        7          -0.000000252    0.000000353   -0.000000577
      7        1           0.000000149    0.000000022   -0.000000044
      8        1           0.000000263   -0.000000121    0.000000328
      9        1          -0.000000091   -0.000000257    0.000000159
 -------------------------------------------------------------------
 Cartesian Forces:  Max     0.000000577 RMS     0.000000198
 Z-matrix is all fixed cartesians, so copy forces.
 Force constants in Cartesian coordinates: 
                1             2             3             4             5 
      1  0.572193D+00
      2  0.335263D+00  0.242385D+00
      3 -0.434831D-01 -0.170320D-01  0.279407D-01
      4 -0.448580D+00 -0.349700D+00 -0.140506D-01  0.811892D+00
      5 -0.316943D+00 -0.270367D+00  0.105191D-02  0.336389D+00  0.374581D+00
      6  0.211391D-02  0.134441D-01 -0.237062D-01 -0.124404D+00  0.357787D-01
      7 -0.131845D+00  0.485100D-02  0.530692D-01 -0.330292D+00  0.162954D-01
      8 -0.312477D-01 -0.298654D-01 -0.396014D-02 -0.230959D-01 -0.118032D-01
      9  0.352558D-01 -0.176164D-01 -0.199132D-01  0.111635D+00 -0.949507D-02
     10  0.796652D-02  0.120763D-01  0.771447D-02 -0.429562D-01 -0.418943D-01
     11 -0.191727D-02 -0.821872D-02 -0.955137D-02  0.140005D-01  0.248159D-01
     12  0.809483D-03 -0.148443D-01  0.497482D-02  0.163790D-01  0.369376D-01
     13 -0.191859D-01 -0.652525D-01 -0.245835D-01 -0.127909D-01  0.111370D+00
     14  0.655483D-02  0.228214D-01  0.831418D-02 -0.972650D-03 -0.362804D-01
     15  0.108490D-01  0.354709D-01  0.143480D-01  0.384194D-02 -0.593484D-01
     16  0.867184D-02  0.226862D-01  0.669076D-02  0.834828D-02 -0.407436D-01
     17 -0.290444D-01 -0.126555D+00 -0.498672D-01 -0.246319D-01  0.211828D+00
     18 -0.188351D-01 -0.694309D-01 -0.303720D-01 -0.141727D-01  0.118447D+00
     19  0.236366D-02  0.820404D-02  0.158393D-02  0.847688D-02 -0.959307D-02
     20  0.278615D-01  0.139083D+00  0.601416D-01  0.446594D-01 -0.241898D+00
     21  0.112840D-01  0.675769D-01  0.249272D-01  0.218986D-01 -0.119739D+00
     22  0.446674D-02  0.165949D-01  0.687994D-02  0.230205D-02 -0.280579D-01
     23  0.436943D-02  0.145367D-01  0.491732D-02  0.243828D-02 -0.245224D-01
     24  0.154983D-02  0.313692D-02  0.146276D-02 -0.213936D-02 -0.363289D-02
     25  0.394886D-02  0.152778D-01  0.617891D-02  0.359993D-02 -0.268225D-01
     26  0.510355D-02  0.161796D-01  0.598570D-02  0.913592D-03 -0.263552D-01
     27  0.456141D-03 -0.705207D-03  0.337979D-03  0.101180D-02  0.000000D+00
                6             7             8             9            10 
      6  0.108931D+00
      7  0.131075D+00  0.680820D+00
      8  0.540545D-02  0.218652D+00  0.242774D+00
      9 -0.519734D-01 -0.145163D+00  0.312481D-01  0.821776D-01
     10 -0.112041D-01 -0.200510D+00 -0.166006D+00 -0.715512D-02  0.234337D+00
     11  0.157943D-01 -0.209660D+00 -0.267092D+00 -0.510808D-01  0.198271D+00
     12 -0.589090D-02 -0.286978D-01 -0.675938D-01 -0.253642D-01  0.130224D-01
     13  0.592802D-01  0.295243D-01 -0.867843D-01 -0.535314D-01  0.646598D-03
     14 -0.168626D-01 -0.574959D-02  0.273208D-01  0.150538D-01 -0.453631D-03
     15 -0.321034D-01 -0.135408D-01  0.456993D-01  0.288955D-01 -0.450733D-03
     16 -0.221237D-01 -0.842802D-02  0.292189D-01  0.193930D-01 -0.179914D-02
     17  0.112361D+00  0.472598D-01 -0.199379D+00 -0.118594D+00  0.296481D-02
     18  0.668251D-01  0.282937D-01 -0.111764D+00 -0.611324D-01  0.172293D-02
     19 -0.487327D-02 -0.257846D-01  0.168587D-01  0.133409D-01  0.185072D-02
     20 -0.140264D+00 -0.619715D-01  0.202698D+00  0.129640D+00 -0.388716D-02
     21 -0.592628D-01 -0.255590D-01  0.998192D-01  0.464162D-01 -0.311229D-02
     22 -0.151735D-01 -0.641553D-02  0.211053D-01  0.133985D-01  0.241564D-03
     23 -0.127369D-01 -0.455377D-02  0.168719D-01  0.119297D-01 -0.702623D-03
     24 -0.167686D-02  0.101883D-02  0.455501D-03  0.922186D-03 -0.194128D-03
     25 -0.146906D-01 -0.706865D-02  0.212988D-01  0.128266D-01  0.222597D-03
     26 -0.129204D-01 -0.512415D-02  0.184756D-01  0.891453D-02 -0.368041D-03
     27 -0.114253D-02 -0.495681D-03  0.689922D-03 -0.282209D-04 -0.343368D-03
               11            12            13            14            15 
     11  0.238342D+00
     12  0.376247D-01  0.237530D-01
     13 -0.995272D-02 -0.513817D-02  0.248093D+00
     14  0.294791D-02  0.160333D-02 -0.724383D-01  0.661614D-01
     15  0.519568D-02  0.278090D-02 -0.111681D+00  0.366997D-01  0.107652D+00
     16  0.464693D-02  0.255298D-02 -0.202269D+00  0.477924D-01  0.682679D-01
     17 -0.224915D-01 -0.116714D-01 -0.463282D-01 -0.590325D-01  0.298981D-01
     18 -0.123072D-01 -0.783665D-02  0.218247D-01 -0.569754D-02 -0.951811D-01
     19  0.180492D-03 -0.110506D-02  0.323377D-02  0.291336D-01  0.147732D-01
     20  0.270367D-01  0.154564D-01  0.129989D+00 -0.379586D-01 -0.700053D-01
     21  0.139177D-01  0.673893D-02  0.645405D-01 -0.318628D-01 -0.358473D-01
     22  0.224678D-02  0.974568D-03 -0.340182D-01  0.986422D-02 -0.151113D-02
     23  0.249137D-02  0.982905D-03  0.284830D-01 -0.215234D-02 -0.423232D-02
     24  0.221921D-03  0.251388D-03  0.200414D-01 -0.227836D-02  0.242822D-01
     25  0.218395D-02  0.120263D-02 -0.132332D-01 -0.137308D-01  0.294513D-01
     26  0.216911D-02  0.150467D-02  0.109142D-01  0.161723D-01 -0.193777D-01
     27  0.185057D-03  0.592694D-03  0.292469D-01 -0.496970D-02 -0.148272D-01
               16            17            18            19            20 
     16  0.546731D+00
     17  0.501404D-01  0.324971D+00
     18  0.779751D-01 -0.197852D+00  0.560376D+00
     19 -0.620719D-01 -0.911798D-02 -0.404918D-02  0.789130D-01
     20 -0.732856D-01  0.706628D-01  0.926263D-01 -0.238124D-02 -0.958929D-01
     21 -0.357126D-01  0.683597D-01 -0.136443D-01 -0.583771D-02 -0.792744D-01
     22 -0.217131D+00  0.312257D-01 -0.147491D+00 -0.522861D-02 -0.283073D-01
     23 -0.802720D-03 -0.368818D-01  0.260135D-01 -0.253388D-01 -0.204113D-01
     24 -0.145655D+00  0.180933D-01 -0.200097D+00 -0.100889D-01 -0.238481D-03
     25 -0.720523D-01 -0.224681D-01  0.547318D-01 -0.175294D-02 -0.326775D-01
     26 -0.396530D-01 -0.163122D+00  0.159964D+00 -0.794576D-02 -0.433202D-01
     27  0.286116D-01  0.149272D+00 -0.218938D+00 -0.374388D-02 -0.808238D-02
               21            22            23            24            25 
     21  0.296753D-01
     22 -0.188481D-01  0.249282D+00
     23 -0.317382D-01 -0.213107D-01  0.518914D-01
     24 -0.921817D-02  0.157532D+00 -0.148349D-01  0.202306D+00
     25 -0.865349D-02  0.650065D-02  0.174179D-01 -0.220641D-01  0.798351D-01
     26  0.129412D-01 -0.336096D-02 -0.182354D-02 -0.922971D-03  0.395205D-01
     27  0.102149D-01  0.423960D-02  0.196989D-01 -0.182323D-01 -0.589831D-01
               26            27 
     26  0.181625D+00
     27 -0.156089D+00  0.242022D+00
 Final forces over variables, Energy=-3.16808125D+02:
  2.90157790D-07-1.22912420D-07-1.89359972D-07 1.20848376D-08
 -5.95816793D-08-2.51739829D-07 1.49210288D-07 2.63407324D-07
 -9.12661344D-08 1.37939823D-07-3.12797484D-08-9.87802469D-08
  5.78272239D-09-1.01878458D-08 3.52896729D-07 2.22856525D-08
 -1.21186755D-07-2.57470112D-07-1.01436422D-07 1.51208994D-07
 -6.02721200D-08 1.37318865D-08 1.30596725D-07-5.76524427D-07
 -4.37869131D-08 3.27600477D-07 1.58881837D-07
 Leave Link  716 at Fri May 26 08:58:31 2023, MaxMem=  2013265920 cpu:         0.7
 (Enter /usr/local/g09/l103.exe)

 GradGradGradGradGradGradGradGradGradGradGradGradGradGradGradGradGradGrad
 Berny optimization.
 Search for a local minimum.
 Step number   1 out of a maximum of    2
 All quantities printed in internal units (Hartrees-Bohrs-Radians)
 Second derivative matrix not updated -- analytic derivatives used.
 ITU=  0
     Eigenvalues ---   -0.64355   0.00004   0.00058   0.00338   0.00751
     Eigenvalues ---    0.01325   0.03717   0.06777   0.10171   0.10320
     Eigenvalues ---    0.11220   0.14881   0.16102   0.18574   0.31585
     Eigenvalues ---    0.42734   0.79328   0.80767   0.93204   1.11881
     Eigenvalues ---    1.65579
 Eigenvalue     1 is  -6.44D-01 should be greater than     0.000000 Eigenvector:
                          Y7        Y2        Z7        Y3        Y6
   1                    0.63423   0.33823   0.30045  -0.29327  -0.26277
                          Z2        Z6        X5        Z3        Y1
   1                    0.20179  -0.16598  -0.16016  -0.15739  -0.14213
 Angle between quadratic step and forces=  88.66 degrees.
 Linear search not attempted -- first point.
 TrRot=  0.000003 -0.000012  0.000025  0.000002  0.000005  0.000002
 Variable       Old X    -DE/DX   Delta X   Delta X   Delta X     New X
                                 (Linear)    (Quad)   (Total)
    X1       -2.74236   0.00000   0.00000   0.00002   0.00004  -2.74232
    Y1        0.96611   0.00000   0.00000  -0.00003  -0.00005   0.96606
    Z1        2.54042   0.00000   0.00000   0.00007   0.00011   2.54053
    X2       -0.88288   0.00000   0.00000   0.00001   0.00002  -0.88286
    Y2        2.27141   0.00000   0.00000  -0.00002  -0.00003   2.27138
    Z2        2.48114   0.00000   0.00000   0.00004   0.00006   2.48120
    X3        1.18749   0.00000   0.00000  -0.00002  -0.00002   1.18747
    Y3        1.73687   0.00000   0.00000   0.00003   0.00002   1.73689
    Z3        1.43416   0.00000   0.00000  -0.00006  -0.00004   1.43412
    X4        2.48769   0.00000   0.00000  -0.00002  -0.00002   2.48767
    Y4        3.13893   0.00000   0.00000   0.00002   0.00002   3.13895
    Z4        1.63420   0.00000   0.00000  -0.00005  -0.00004   1.63417
    X5        3.18913   0.00000   0.00000   0.00004   0.00004   3.18918
    Y5       -3.62168   0.00000   0.00000  -0.00005  -0.00005  -3.62173
    Z5       -1.96705   0.00000   0.00000   0.00009   0.00010  -1.96694
    X6        1.08501   0.00000   0.00000  -0.00001   0.00000   1.08500
    Y6       -2.86828   0.00000   0.00000   0.00002   0.00001  -2.86827
    Z6       -0.79952   0.00000   0.00000  -0.00004  -0.00002  -0.79954
    X7        1.26833   0.00000   0.00000  -0.00002  -0.00001   1.26832
    Y7       -0.97503   0.00000   0.00000   0.00002   0.00002  -0.97502
    Z7        0.06538   0.00000   0.00000  -0.00005  -0.00003   0.06534
    X8       -0.44351   0.00000   0.00000   0.00006   0.00007  -0.44345
    Y8       -2.71627   0.00000   0.00000   0.00004   0.00003  -2.71624
    Z8       -1.99021   0.00000   0.00000  -0.00013  -0.00011  -1.99032
    X9        0.56231   0.00000   0.00000  -0.00013  -0.00011   0.56219
    Y9       -4.02864   0.00000   0.00000   0.00005   0.00004  -4.02860
    Z9        0.66935   0.00000   0.00000  -0.00006  -0.00004   0.66931
         Item               Value     Threshold  Converged?
 Maximum Force            0.000001     0.000450     YES
 RMS     Force            0.000000     0.000300     YES
 Maximum Displacement     0.000112     0.001800     YES
 RMS     Displacement     0.000053     0.001200     YES
 Predicted change in Energy=-2.985912D-12
 Optimization completed.
    -- Stationary point found.
 GradGradGradGradGradGradGradGradGradGradGradGradGradGradGradGradGradGrad

 Leave Link  103 at Fri May 26 08:58:31 2023, MaxMem=  2013265920 cpu:         1.6
 (Enter /usr/local/g09/l9999.exe)

 Test job not archived.
 1\1\GINC-N025\Freq\UB2PLYPD3-FC\def2TZVP\H4N3O2(2)\ROOT\26-May-2023\0\
 \#P guess=read ub2plypd3/def2tzvp freq IOp(7/33=1) scf=(tight, direct)
  integral=(grid=ultrafine, Acc2E=12) IOp(2/9=2000) scf=xqc\\TS0\\0,2\O
 ,-1.451194,0.511245,1.344333\N,-0.4672,1.201981,1.312961\N,0.628393,0.
 919113,0.758923\H,1.316427,1.66105,0.864784\O,1.687617,-1.91651,-1.040
 917\N,0.574162,-1.517829,-0.423088\H,0.67117,-0.515966,0.034595\H,-0.2
 34697,-1.437389,-1.053173\H,0.297559,-2.131863,0.354203\\Version=EM64L
 -G09RevD.01\State=2-A\HF=-316.4392931\MP2=-316.8081253\S2=0.771589\S2-
 1=0.\S2A=0.750341\RMSD=4.577e-09\RMSF=1.980e-07\ZeroPoint=0.0590316\Th
 ermal=0.0657409\Dipole=-0.4939358,0.606868,0.4861827\DipoleDeriv=-1.99
 7572,1.0370658,1.2050662,-3.7666547,4.2021439,3.5796184,-1.1653761,1.7
 625868,1.1458622,1.3630662,1.2784238,0.1327167,5.6263746,-7.6649514,-5
 .9333696,2.2783245,-4.2888734,-2.9318404,0.0893593,-2.0601596,-1.18486
 4,-3.7064036,5.9900475,4.5332297,-1.9972837,3.9106864,2.3296593,0.3264
 9,-0.0021467,0.0083337,-0.5263731,0.8971361,0.4684352,-0.2503511,0.270
 1414,0.579324,-2.8308176,3.6391771,2.6844601,0.7360078,-1.5876853,-0.8
 243197,1.2517229,-1.9222155,-1.903354,1.3344012,-1.3947193,-1.1087705,
 -4.5345736,6.9387327,5.0293483,-2.65806,3.8415504,3.1236014,0.5604744,
 -0.746402,-0.5208568,5.1613987,-7.6102502,-5.7852081,2.3943872,-3.5505
 764,-2.5005297,0.5205447,-0.843985,-0.6745854,0.5402443,-0.5730858,-0.
 5499439,0.0076576,-0.0381313,0.1258977,0.6340538,-0.9072539,-0.5415001
 ,0.4699795,-0.5920874,-0.5177903,0.1389788,0.0148315,0.0313796\Polar=1
 55.7758469,-172.0753787,302.7569432,-134.7632952,202.6511633,174.95617
 02\PG=C01 [X(H4N3O2)]\NImag=1\\0.57219304,0.33526260,0.24238512,-0.043
 48312,-0.01703203,0.02794070,-0.44857986,-0.34970039,-0.01405055,0.811
 89200,-0.31694256,-0.27036678,0.00105191,0.33638897,0.37458137,0.00211
 391,0.01344410,-0.02370624,-0.12440381,0.03577872,0.10893107,-0.131844
 91,0.00485100,0.05306918,-0.33029216,0.01629542,0.13107479,0.68081957,
 -0.03124766,-0.02986541,-0.00396014,-0.02309587,-0.01180316,0.00540545
 ,0.21865229,0.24277351,0.03525578,-0.01761638,-0.01991323,0.11163505,-
 0.00949507,-0.05197336,-0.14516319,0.03124811,0.08217759,0.00796652,0.
 01207628,0.00771447,-0.04295618,-0.04189429,-0.01120414,-0.20051003,-0
 .16600620,-0.00715512,0.23433734,-0.00191727,-0.00821872,-0.00955137,0
 .01400052,0.02481590,0.01579433,-0.20965954,-0.26709240,-0.05108078,0.
 19827085,0.23834161,0.00080948,-0.01484434,0.00497482,0.01637902,0.036
 93757,-0.00589090,-0.02869783,-0.06759378,-0.02536420,0.01302238,0.037
 62470,0.02375302,-0.01918588,-0.06525251,-0.02458351,-0.01279095,0.111
 36957,0.05928023,0.02952428,-0.08678427,-0.05353143,0.00064660,-0.0099
 5272,-0.00513817,0.24809277,0.00655483,0.02282135,0.00831418,-0.000972
 65,-0.03628037,-0.01686263,-0.00574959,0.02732080,0.01505379,-0.000453
 63,0.00294791,0.00160333,-0.07243835,0.06616144,0.01084902,0.03547094,
 0.01434801,0.00384194,-0.05934844,-0.03210341,-0.01354084,0.04569934,0
 .02889547,-0.00045073,0.00519568,0.00278090,-0.11168065,0.03669969,0.1
 0765235,0.00867184,0.02268622,0.00669076,0.00834828,-0.04074363,-0.022
 12368,-0.00842802,0.02921892,0.01939299,-0.00179914,0.00464693,0.00255
 298,-0.20226918,0.04779244,0.06826792,0.54673109,-0.02904441,-0.126555
 20,-0.04986718,-0.02463189,0.21182849,0.11236126,0.04725980,-0.1993788
 6,-0.11859408,0.00296481,-0.02249145,-0.01167142,-0.04632823,-0.059032
 48,0.02989811,0.05014037,0.32497097,-0.01883509,-0.06943093,-0.0303719
 8,-0.01417266,0.11844746,0.06682506,0.02829371,-0.11176356,-0.06113242
 ,0.00172293,-0.01230723,-0.00783665,0.02182471,-0.00569754,-0.09518110
 ,0.07797512,-0.19785172,0.56037624,0.00236366,0.00820404,0.00158393,0.
 00847688,-0.00959307,-0.00487327,-0.02578456,0.01685872,0.01334089,0.0
 0185072,0.00018049,-0.00110506,0.00323377,0.02913357,0.01477317,-0.062
 07195,-0.00911798,-0.00404918,0.07891302,0.02786148,0.13908329,0.06014
 162,0.04465944,-0.24189785,-0.14026393,-0.06197146,0.20269802,0.129640
 16,-0.00388716,0.02703667,0.01545637,0.12998932,-0.03795858,-0.0700052
 6,-0.07328557,0.07066278,0.09262627,-0.00238124,-0.09589285,0.01128404
 ,0.06757692,0.02492719,0.02189859,-0.11973936,-0.05926283,-0.02555897,
 0.09981916,0.04641619,-0.00311229,0.01391769,0.00673893,0.06454055,-0.
 03186276,-0.03584727,-0.03571256,0.06835969,-0.01364426,-0.00583771,-0
 .07927437,0.02967535,0.00446674,0.01659492,0.00687994,0.00230205,-0.02
 805794,-0.01517346,-0.00641553,0.02110531,0.01339847,0.00024156,0.0022
 4678,0.00097457,-0.03401823,0.00986422,-0.00151113,-0.21713058,0.03122
 568,-0.14749134,-0.00522861,-0.02830730,-0.01884815,0.24928196,0.00436
 943,0.01453675,0.00491732,0.00243828,-0.02452240,-0.01273690,-0.004553
 77,0.01687187,0.01192971,-0.00070262,0.00249137,0.00098291,0.02848297,
 -0.00215234,-0.00423232,-0.00080272,-0.03688180,0.02601352,-0.02533876
 ,-0.02041133,-0.03173819,-0.02131071,0.05189143,0.00154983,0.00313692,
 0.00146276,-0.00213936,-0.00363289,-0.00167686,0.00101883,0.00045550,0
 .00092219,-0.00019413,0.00022192,0.00025139,0.02004142,-0.00227836,0.0
 2428224,-0.14565512,0.01809330,-0.20009722,-0.01008889,-0.00023848,-0.
 00921817,0.15753150,-0.01483495,0.20230600,0.00394886,0.01527785,0.006
 17891,0.00359993,-0.02682247,-0.01469057,-0.00706865,0.02129875,0.0128
 2655,0.00022260,0.00218395,0.00120263,-0.01323318,-0.01373083,0.029451
 30,-0.07205235,-0.02246815,0.05473182,-0.00175294,-0.03267751,-0.00865
 349,0.00650065,0.01741790,-0.02206409,0.07983508,0.00510355,0.01617960
 ,0.00598570,0.00091359,-0.02635519,-0.01292038,-0.00512415,0.01847563,
 0.00891453,-0.00036804,0.00216911,0.00150467,0.01091421,0.01617228,-0.
 01937775,-0.03965296,-0.16312245,0.15996374,-0.00794576,-0.04332015,0.
 01294123,-0.00336096,-0.00182354,-0.00092297,0.03952051,0.18162470,0.0
 0045614,-0.00070521,0.00033798,0.00101180,0.00000010,-0.00114253,-0.00
 049568,0.00068992,-0.00002822,-0.00034337,0.00018506,0.00059269,0.0292
 4685,-0.00496970,-0.01482720,0.02861160,0.14927206,-0.21893768,-0.0037
 4388,-0.00808238,0.01021486,0.00423960,0.01969892,-0.01823232,-0.05898
 306,-0.15608877,0.24202242\\-0.00000029,-0.00000014,0.00000010,0.00000
 012,0.00000003,-0.00000015,0.00000019,0.00000010,0.00000006,-0.0000000
 1,0.,-0.00000001,0.00000006,0.00000001,-0.00000013,0.00000025,-0.00000
 035,0.00000058,-0.00000015,-0.00000002,0.00000004,-0.00000026,0.000000
 12,-0.00000033,0.00000009,0.00000026,-0.00000016\\\@


 I (ERNEST RUTHERFORD) CAME INTO THE ROOM, WHICH WAS HALF DARK, AND PRESENTLY
 SPOTTED LORD KELVIN IN THE AUDIENCE AND REALIZED I WAS IN TROUBLE AT
 THE LAST PART OF MY SPEECH DEALING THE AGE OF THE EARTH, WHERE MY VIEWS
 CONFLICTED WITH HIS.  TO MY RELIEF KELVIN FELL FAST ASLEEP, BUT AS I CAME
 TO THE IMPORTANT POINT, I SAW THE OLD BIRD SIT UP AND COCK A BALEFUL GLANCE
 AT ME! THEN A SUDDEN INSPIRATION CAME AND I SAID LORD KELVIN HAD LIMITED
 THE AGE OF THE EARTH PROVIDED NO NEW SOURCE WAS DISCOVERED. THAT
 PROPHETIC UTTERANCE REFERS TO WHAT WE ARE NOW CONSIDERING TONIGHT, RADIUM!
 BEHOLD!  THE OLD BOY BEAMED UPON ME.
 Job cpu time:       0 days  4 hours 44 minutes 23.1 seconds.
 File lengths (MBytes):  RWF=  10627 Int=      0 D2E=      0 Chk=      6 Scr=      1
 Normal termination of Gaussian 09 at Fri May 26 08:58:32 2023.
