$orca_hessian_file

$act_atom
  0

$hessian
9
                 0                 1                 2                 3                 4
     0  5.5000000000E-01  1.1192051723E-02  1.4784610045E-02  1.8955001477E-02  2.9865480741E-02
     1  1.1192051723E-02  5.0000000000E-01 -6.8544694538E-03  1.9981749613E-03 -2.4802759035E-02
     2  1.4784610045E-02 -6.8544694538E-03  4.8000000000E-01  1.6715294406E-02 -7.8828715334E-03
     3  1.8955001477E-02  1.9981749613E-03  1.6715294406E-02  3.0000000000E-01 -9.3274025031E-03
     4  2.9865480741E-02 -2.4802759035E-02 -7.8828715334E-03 -9.3274025031E-03  2.8000000000E-01
     5  1.0312799717E-02 -1.1954502863E-02  1.8196527536E-02 -1.7886547656E-02  3.7638895543E-03
     6 -3.3597423160E-03 -3.5591836687E-03  5.5628829339E-05  7.4718219431E-03  7.2698023818E-03
     7 -2.4763847271E-02 -7.7607983639E-03 -2.5268405879E-02  1.3234455413E-02  1.2615972271E-02
     8 -1.6913094504E-02 -3.3951857611E-03  1.0610391254E-02  1.2949728921E-02 -1.6161236132E-02
                 5                 6                 7                 8
     0  1.0312799717E-02 -3.3597423160E-03 -2.4763847271E-02 -1.6913094504E-02
     1 -1.1954502863E-02 -3.5591836687E-03 -7.7607983639E-03 -3.3951857611E-03
     2  1.8196527536E-02  5.5628829339E-05 -2.5268405879E-02  1.0610391254E-02
     3 -1.7886547656E-02  7.4718219431E-03  1.3234455413E-02  1.2949728921E-02
     4  3.7638895543E-03  7.2698023818E-03  1.2615972271E-02 -1.6161236132E-02
     5  2.6000000000E-01  4.9045614481E-03  1.9311229979E-02 -5.3422907707E-03
     6  4.9045614481E-03  3.1000000000E-01  6.2095140266E-03 -2.4897805586E-02
     7  1.9311229979E-02  6.2095140266E-03  2.9000000000E-01 -2.2738818133E-02
     8 -5.3422907707E-03 -2.4897805586E-02 -2.2738818133E-02  2.7000000000E-01

$end
