                                 * O   R   C   A *

                     Program Version 5.0.3

VIBRATIONAL FREQUENCIES
-----------------------

   0:         0.00 cm**-1

------   ORCA TERMINATED NORMALLY  ------
