      -----------------------------------------------------------      
     |                   =====================                   |     
     |                           x T B                           |     
     |                   =====================                   |     
     |                         S. Grimme                         |     
     |          Mulliken Center for Theoretical Chemistry        |     
     |                    University of Bonn                     |     
      -----------------------------------------------------------      

   * xtb version 6.3.3 (4ae9cef) compiled by 'conda@95abc7406d43' on 2020-10-14

   xtb is free software: you can redistribute it and/or modify it under
   the terms of the GNU Lesser General Public License as published by
   the Free Software Foundation, either version 3 of the License, or
   (at your option) any later version.
   
   xtb is distributed in the hope that it will be useful,
   but WITHOUT ANY WARRANTY; without even the implied warranty of
   MERCHANTABILITY or FITNESS FOR A PARTICULAR PURPOSE.  See the
   GNU Lesser General Public License for more details.
   
   Cite this work as:
   * C. Bannwarth, E. Caldeweyher, S. Ehlert, A. Hansen, P. Pracht,
     J. Seibert, S. Spicher, S. Grimme, WIREs Comput. Mol. Sci., 2020,
     e01493. DOI: 10.1002/wcms.1493
   
   for GFN2-xTB:
   * S. Grimme, C. Bannwarth, P. Shushkov, J. Chem. Theory Comput., 2017,
     13, 1989-2009. DOI: 10.1021/acs.jctc.7b00118
   for GFN1-xTB:
   * C. Bannwarth, S. Ehlert and S. Grimme., J. Chem. Theory Comput., 2019,
     15, 1652-1671. DOI: 10.1021/acs.jctc.8b01176
   for GFN0-xTB:
   * P. Pracht, E. Caldeweyher, S. Ehlert, S. Grimme, ChemRxiv, 2019, preprint.
     DOI: 10.26434/chemrxiv.8326202.v1
   for GFN-FF:
   * S. Spicher and S. Grimme, Angew. Chem. Int. Ed., 2020, 59, 15665-15673.
     DOI: 10.1002/anie.202004239
   
   for DFT-D4:
   * E. Caldeweyher, C. Bannwarth and S. Grimme, J. Chem. Phys., 2017,
     147, 034112. DOI: 10.1063/1.4993215
   * E. Caldeweyher, S. Ehlert, A. Hansen, H. Neugebauer, S. Spicher,
     C. Bannwarth and S. Grimme, J. Chem. Phys., 2019, 150, 154122.
     DOI: 10.1063/1.5090222
   * E. Caldeweyher, J.-M. Mewes, S. Ehlert and S. Grimme, Phys. Chem. Chem. Phys.
     2020, 22, 8499-8512. DOI: 10.1039/D0CP00502A
   
   for sTDA-xTB:
   * S. Grimme and C. Bannwarth, J. Chem. Phys., 2016, 145, 054103.
     DOI: 10.1063/1.4959605
   
   in the mass-spec context:
   * V. Asgeirsson, C. Bauer and S. Grimme, Chem. Sci., 2017, 8, 4879.
     DOI: 10.1039/c7sc00601b
   * J. Koopman and S. Grimme, ACS Omega 2019, 4, 12, 15120-15133.
     DOI: 10.1021/acsomega.9b02011
   
   for metadynamics refer to:
   * S. Grimme, J. Chem. Theory Comput., 2019, 155, 2847-2862
     DOI: 10.1021/acs.jctc.9b00143
   
   with help from (in alphabetical order)
   C. Bannwarth, F. Bohle, G. Brandenburg, E. Caldeweyher, M. Checinski,
   S. Dohm, S. Ehlert, S. Ehrlich, F. März, H. Neugebauer, J. Pisarek,
   P. Pracht, P. Shushkov, and S. Spicher.
   
 * started run on 2022/07/31 at 10:39:26.460     

           -------------------------------------------------
          |                Calculation Setup                |
           -------------------------------------------------

          program call               : /home/alon/anaconda3/envs/arc_env/bin/xtb mol.sdf --hess --gfn2 --parallel --uhf 1 --chrg 0
          coordinate file            : mol.sdf
          omp threads                :                    24
          number of atoms            :                    10
          number of electrons        :                    19
          charge                     :                     0
          spin                       :                   0.5
          first test random number   :      0.22512267363466

   ID    Z sym.   atoms
    1    6 C      1-3
    2    1 H      4-10

           -------------------------------------------------
          |                 G F N 2 - x T B                 |
           -------------------------------------------------

        Reference                      10.1021/acs.jctc.8b01176
      * Hamiltonian:
        H0-scaling (s, p, d)           1.850000    2.230000    2.230000
        zeta-weighting                 0.500000
      * Dispersion:
        s8                             2.700000
        a1                             0.520000
        a2                             5.000000
        s9                             5.000000
      * Repulsion:
        kExp                           1.500000    1.000000
        rExp                           1.000000
      * Coulomb:
        alpha                          2.000000
        third order                    shell-resolved
        anisotropic                    true
        a3                             3.000000
        a5                             4.000000
        cn-shift                       1.200000
        cn-exp                         4.000000
        max-rad                        5.000000


          ...................................................
          :                      SETUP                      :
          :.................................................:
          :  # basis functions                  19          :
          :  # atomic orbitals                  19          :
          :  # shells                           13          :
          :  # electrons                        19          :
          :  max. iterations                   250          :
          :  Hamiltonian                  GFN2-xTB          :
          :  restarted?                      false          :
          :  GBSA solvation                  false          :
          :  PC potential                    false          :
          :  electronic temp.          300.0000000     K    :
          :  accuracy                    1.0000000          :
          :  -> integral cutoff          0.2500000E+02      :
          :  -> integral neglect         0.1000000E-07      :
          :  -> SCF convergence          0.1000000E-05 Eh   :
          :  -> wf. convergence          0.1000000E-03 e    :
          :  Broyden damping             0.4000000          :
          ...................................................

 iter      E             dE          RMSdq      gap      omega  full diag
   1    -10.0416763 -0.100417E+02  0.259E+00   10.94       0.0  T
   2    -10.0633124 -0.216361E-01  0.126E+00   11.04       1.0  T
   3    -10.0636468 -0.334365E-03  0.617E-01   11.05       1.0  T
   4    -10.0637106 -0.637918E-04  0.822E-02   11.02       1.0  T
   5    -10.0637106 -0.513835E-08  0.178E-02   11.02       1.8  T
   6    -10.0637110 -0.427919E-06  0.300E-03   11.02      10.5  T
   7    -10.0637110 -0.803378E-08  0.899E-04   11.02      35.2  T
   8    -10.0637110 -0.145197E-08  0.230E-04   11.02     137.8  T

   *** convergence criteria satisfied after 8 iterations ***

         #    Occupation            Energy/Eh            Energy/eV
      -------------------------------------------------------------
         1        2.0000           -0.6061692             -16.4947
       ...           ...                  ...                  ...
         4        2.0000           -0.4986689             -13.5695
         5        2.0000           -0.4853174             -13.2062
         6        2.0000           -0.4739652             -12.8972
         7        2.0000           -0.4615771             -12.5602
         8        2.0000           -0.4406730             -11.9913
         9        2.0000           -0.4305124             -11.7148
        10        1.0000           -0.2854596              -7.7678 (HOMO)
        11                          0.1195734               3.2538 (LUMO)
        12                          0.1500232               4.0823
        13                          0.1797047               4.8900
        14                          0.1856321               5.0513
        15                          0.1978893               5.3848
       ...                                ...                  ...
        19                          0.3654607               9.9447
      -------------------------------------------------------------
                  HL-Gap            0.4050330 Eh           11.0215 eV
             Fermi-level           -0.2204645 Eh           -5.9991 eV

 SCC (total)                   0 d,  0 h,  0 min,  0.002 sec
 SCC setup                      ...        0 min,  0.000 sec (  2.994%)
 Dispersion                     ...        0 min,  0.000 sec (  2.516%)
 classical contributions        ...        0 min,  0.000 sec (  1.138%)
 integral evaluation            ...        0 min,  0.000 sec ( 14.912%)
 iterations                     ...        0 min,  0.001 sec ( 46.945%)
 molecular gradient             ...        0 min,  0.001 sec ( 27.150%)
 printout                       ...        0 min,  0.000 sec (  3.926%)

         :::::::::::::::::::::::::::::::::::::::::::::::::::::
         ::                     SUMMARY                     ::
         :::::::::::::::::::::::::::::::::::::::::::::::::::::
         :: total energy              -9.907945791528 Eh    ::
         :: gradient norm              0.000109139350 Eh/a0 ::
         :: HOMO-LUMO gap             11.021508007204 eV    ::
         ::.................................................::
         :: SCC energy               -10.063711034467 Eh    ::
         :: -> isotropic ES            0.002969091484 Eh    ::
         :: -> anisotropic ES          0.003814162720 Eh    ::
         :: -> anisotropic XC          0.007248923138 Eh    ::
         :: -> dispersion             -0.003488540294 Eh    ::
         :: repulsion energy           0.155764211445 Eh    ::
         :: add. restraining           0.000000000000 Eh    ::
         :: total charge               0.000000000000 e     ::
         :::::::::::::::::::::::::::::::::::::::::::::::::::::

           ------------------------------------------------- 
          |                Numerical Hessian                |
           ------------------------------------------------- 
step length          :   0.00500
SCC accuracy         :   0.30000
Hessian scale factor :   1.00000
frozen atoms in %    :   0.00000    0
RMS gradient         :   0.00011
estimated CPU  time      0.02 min
estimated wall time      0.00 min

writing file <hessian>.

 projected vibrational frequencies (cm-1)
eigval :       -0.00    -0.00    -0.00     0.00     0.00     0.00
eigval :       63.91    78.30   387.25   420.81   940.70   946.90
eigval :      956.70  1028.74  1167.75  1180.92  1342.98  1393.66
eigval :     1405.76  1465.52  1475.30  1481.41  1484.33  2854.87
eigval :     2860.31  2993.41  2993.88  3004.54  3008.91  3105.52
           -------------------------------------------------
          |                Property Printout                |
           -------------------------------------------------

    * Orbital Energies and Occupations

         #    Occupation            Energy/Eh            Energy/eV
      -------------------------------------------------------------
         1        2.0000           -0.6061695             -16.4947
         2        2.0000           -0.5856616             -15.9367
         3        2.0000           -0.5406427             -14.7116
         4        2.0000           -0.4986690             -13.5695
         5        2.0000           -0.4853172             -13.2062
         6        2.0000           -0.4739654             -12.8973
         7        2.0000           -0.4615771             -12.5602
         8        2.0000           -0.4406732             -11.9913
         9        2.0000           -0.4305126             -11.7148
        10        1.0000           -0.2854591              -7.7677 (HOMO)
        11                          0.1195734               3.2538 (LUMO)
        12                          0.1500227               4.0823
        13                          0.1797046               4.8900
        14                          0.1856325               5.0513
        15                          0.1978889               5.3848
        16                          0.2104419               5.7264
        17                          0.2219509               6.0396
        18                          0.3220548               8.7636
        19                          0.3654608               9.9447
      -------------------------------------------------------------
                  HL-Gap            0.4050325 Eh           11.0215 eV
             Fermi-level           -0.2204644 Eh           -5.9991 eV

     #   Z          covCN         q      C6AA      α(0)
     1   6 C        3.751    -0.096    22.389     6.748
     2   6 C        2.882    -0.072    29.797     8.949
     3   6 C        3.752    -0.096    22.389     6.748
     4   1 H        0.925     0.039     2.457     2.451
     5   1 H        0.924     0.039     2.463     2.454
     6   1 H        0.923     0.044     2.396     2.421
     7   1 H        0.926     0.019     2.750     2.593
     8   1 H        0.923     0.044     2.396     2.421
     9   1 H        0.924     0.039     2.463     2.454
    10   1 H        0.925     0.039     2.457     2.451

 Mol. C6AA /au·bohr⁶  :        671.387496
 Mol. C8AA /au·bohr⁸  :      14020.729859
 Mol. α(0) /au        :         39.690036


Wiberg/Mayer (AO) data.
largest (>0.10) Wiberg bond orders for each atom

 ---------------------------------------------------------------------------
     #   Z sym  total        # sym  WBO       # sym  WBO       # sym  WBO
 ---------------------------------------------------------------------------
     1   6 C    3.988 --     2 C    1.079     4 H    0.978     5 H    0.973
                             6 H    0.940
     2   6 C    3.142 --     3 C    1.079     1 C    1.079     7 H    0.976
     3   6 C    3.988 --     2 C    1.079    10 H    0.978     9 H    0.973
                             8 H    0.940
     4   1 H    0.991 --     1 C    0.978
     5   1 H    0.984 --     1 C    0.973
     6   1 H    0.946 --     1 C    0.940
     7   1 H    0.999 --     2 C    0.976
     8   1 H    0.946 --     3 C    0.940
     9   1 H    0.984 --     3 C    0.973
    10   1 H    0.991 --     3 C    0.978
 ---------------------------------------------------------------------------


molecular dipole:
                 x           y           z       tot (Debye)
 q only:        0.008       0.076      -0.103
   full:        0.005       0.057      -0.165       0.444
molecular quadrupole (traceless):
                xx          xy          yy          xz          yz          zz
 q only:        0.852      -0.139      -0.222      -0.008       0.005      -0.630
  q+dip:        0.820      -0.093       0.150      -0.063      -0.462      -0.970
   full:        0.876      -0.117      -0.009      -0.032      -0.207      -0.868

           -------------------------------------------------
          |               Frequency Printout                |
           -------------------------------------------------
 projected vibrational frequencies (cm-1)
eigval :       -0.00    -0.00    -0.00     0.00     0.00     0.00
eigval :       63.91    78.30   387.25   420.81   940.70   946.90
eigval :      956.70  1028.74  1167.75  1180.92  1342.98  1393.66
eigval :     1405.76  1465.52  1475.30  1481.41  1484.33  2854.87
eigval :     2860.31  2993.41  2993.88  3004.54  3008.91  3105.52
 reduced masses (amu)
   1:  9.64   2:  9.26   3:  9.85   4:  8.34   5:  8.70   6:  5.92   7:  1.20   8:  3.43
   9:  6.60  10:  4.11  11:  8.01  12:  2.52  13:  2.96  14:  4.29  15:  6.86  16:  5.59
  17:  6.98  18:  3.32  19:  2.84  20:  1.82  21:  1.73  22:  1.85  23:  1.48  24:  1.74
  25:  1.75  26:  1.56  27:  1.56  28:  1.77  29:  1.77  30:  1.82
 IR intensities (amu)
   1:  0.11   2:  0.07   3:  0.08   4:  0.07   5:  0.10   6:  0.14   7:  0.00   8:  0.15
   9:  0.13  10:  0.22  11:  0.07  12:  0.03  13:  0.04  14:  0.07  15:  0.20  16:  0.31
  17:  0.50  18:  0.22  19:  0.06  20:  0.05  21:  0.05  22:  0.06  23:  0.04  24:  0.12
  25:  0.28  26:  0.19  27:  0.18  28:  0.01  29:  0.27  30:  0.31
 Raman intensities (amu)
   1:  0.00   2:  0.00   3:  0.00   4:  0.00   5:  0.00   6:  0.00   7:  0.00   8:  0.00
   9:  0.00  10:  0.00  11:  0.00  12:  0.00  13:  0.00  14:  0.00  15:  0.00  16:  0.00
  17:  0.00  18:  0.00  19:  0.00  20:  0.00  21:  0.00  22:  0.00  23:  0.00  24:  0.00
  25:  0.00  26:  0.00  27:  0.00  28:  0.00  29:  0.00  30:  0.00
Molecule has the following symmetry elements: (sigma) 
It seems to be the Cs point group
 output can be read by thermo (or use thermo option).
 writing <g98.out> molden fake output.
 recommended (thermochemical) frequency scaling factor: 1.0
           -------------------------------------------------
          |             Thermodynamic Functions             |
           -------------------------------------------------

cs  symmetry found (for desy threshold:  0.10E+00) used in thermo

          ...................................................
          :                      SETUP                      :
          :.................................................:
          :  # frequencies                          24      :
          :  # imaginary freq.                       0      :
          :  linear?                             false      :
          :  only rotor calc.                    false      :
          :  symmetry                               cs      :
          :  rotational number                       1      :
          :  scaling factor                  1.0000000      :
          :  rotor cutoff                   50.0000000 cm⁻¹ :
          :  imag. cutoff                  -20.0000000 cm⁻¹ :
          :.................................................:

    mode    ω/cm⁻¹     T·S(HO)/kcal·mol⁻¹    T·S(FR)/kcal·mol⁻¹   T·S(vib)
   ------------------------------------------------------------------------
       1     63.91    -1.29181 ( 72.74%)    -0.98218 ( 27.26%)    -1.20741
       2     78.30    -1.17265 ( 85.74%)    -0.92233 ( 14.26%)    -1.13696
   ------------------------------------------------------------------------

   temp. (K)  partition function   enthalpy   heat capacity  entropy
                                   cal/mol     cal/K/mol   cal/K/mol   J/K/mol
 298.15  VIB   17.2                 1534.798      9.629     10.396
         ROT  0.176E+05              888.752      2.981     22.409
         INT  0.302E+06             2423.551     12.610     32.805
         TR   0.274E+27             1481.254      4.968     37.192
         TOT                        3904.8047    17.5784    69.9964   292.8649

       T/K    H(0)-H(T)+PV         H(T)/Eh          T*S/Eh         G(T)/Eh
   ------------------------------------------------------------------------
    298.15    0.622270E-02    0.928896E-01    0.332575E-01    0.596320E-01
   ------------------------------------------------------------------------

         :::::::::::::::::::::::::::::::::::::::::::::::::::::
         ::                  THERMODYNAMIC                  ::
         :::::::::::::::::::::::::::::::::::::::::::::::::::::
         :: total free energy          -9.848313770289 Eh   ::
         ::.................................................::
         :: total energy               -9.907945791539 Eh   ::
         :: zero point energy           0.086666868422 Eh   ::
         :: G(RRHO) w/o ZPVE           -0.027034847172 Eh   ::
         :: G(RRHO) contrib.            0.059632021250 Eh   ::
         :::::::::::::::::::::::::::::::::::::::::::::::::::::

           -------------------------------------------------
          | TOTAL ENERGY               -9.907945791539 Eh   |
          | TOTAL ENTHALPY             -9.815056220672 Eh   |
          | TOTAL FREE ENERGY          -9.848313770289 Eh   |
          | GRADIENT NORM               0.000109041777 Eh/α |
          | HOMO-LUMO GAP              11.021494251625 eV   |
           -------------------------------------------------

------------------------------------------------------------------------
 * finished run on 2022/07/31 at 10:39:26.493     
------------------------------------------------------------------------
 total:
 * wall-time:     0 d,  0 h,  0 min,  0.033 sec
 *  cpu-time:     0 d,  0 h,  0 min,  0.563 sec
 * ratio c/w:    16.969 speedup
 SCF:
 * wall-time:     0 d,  0 h,  0 min,  0.003 sec
 *  cpu-time:     0 d,  0 h,  0 min,  0.073 sec
 * ratio c/w:    29.331 speedup
 numerical hessian:
 * wall-time:     0 d,  0 h,  0 min,  0.021 sec
 *  cpu-time:     0 d,  0 h,  0 min,  0.311 sec
 * ratio c/w:    14.772 speedup

